Program Version,EnergyPlus-Windows-64 8.1.0.008, YMD=2014.03.15 10:11
1,5,Environment Title[],Latitude[deg],Longitude[deg],Time Zone[],Elevation[m]
2,6,Day of Simulation[],Month[],Day of Month[],DST Indicator[1=yes 0=no],Hour[],StartMinute[],EndMinute[],DayType
3,3,Cumulative Day of Simulation[],Month[],Day of Month[],DST Indicator[1=yes 0=no],DayType  ! When Daily Report Variables Requested
4,2,Cumulative Days of Simulation[],Month[]  ! When Monthly Report Variables Requested
5,1,Cumulative Days of Simulation[] ! When Run Period Report Variables Requested
6,1,Environment,Site Outdoor Air Drybulb Temperature [C] !Hourly
7,7,Environment,Site Daylight Saving Time Status [] !Daily [Value,Min,Hour,Minute,Max,Hour,Minute]
8,7,Environment,Site Day Type Index [] !Daily [Value,Min,Hour,Minute,Max,Hour,Minute]
40,1,ZONE ONE,Zone Total Internal Latent Gain Energy [J] !Hourly
41,9,TEST 352A,Other Equipment Total Heating Energy [J] !Monthly  [Value,Min,Day,Hour,Minute,Max,Day,Hour,Minute]
42,9,ZONE ONE,Zone Other Equipment Total Heating Energy [J] !Monthly  [Value,Min,Day,Hour,Minute,Max,Day,Hour,Minute]
43,9,TEST 352 MINUS,Other Equipment Total Heating Energy [J] !Monthly  [Value,Min,Day,Hour,Minute,Max,Day,Hour,Minute]
44,7,ZN001:WALL001,Surface Inside Face Temperature [C] !Daily [Value,Min,Hour,Minute,Max,Hour,Minute]
45,7,ZN001:WALL001,Surface Outside Face Temperature [C] !Daily [Value,Min,Hour,Minute,Max,Hour,Minute]
46,7,ZN001:WALL001,Surface Inside Face Convection Heat Transfer Coefficient [W/m2-K] !Daily [Value,Min,Hour,Minute,Max,Hour,Minute]
47,7,ZN001:WALL001,Surface Outside Face Convection Heat Transfer Coefficient [W/m2-K] !Daily [Value,Min,Hour,Minute,Max,Hour,Minute]
48,7,ZN001:WALL002,Surface Inside Face Temperature [C] !Daily [Value,Min,Hour,Minute,Max,Hour,Minute]
49,7,ZN001:WALL002,Surface Outside Face Temperature [C] !Daily [Value,Min,Hour,Minute,Max,Hour,Minute]
50,7,ZN001:WALL002,Surface Inside Face Convection Heat Transfer Coefficient [W/m2-K] !Daily [Value,Min,Hour,Minute,Max,Hour,Minute]
51,7,ZN001:WALL002,Surface Outside Face Convection Heat Transfer Coefficient [W/m2-K] !Daily [Value,Min,Hour,Minute,Max,Hour,Minute]
52,7,ZN001:WALL003,Surface Inside Face Temperature [C] !Daily [Value,Min,Hour,Minute,Max,Hour,Minute]
53,7,ZN001:WALL003,Surface Outside Face Temperature [C] !Daily [Value,Min,Hour,Minute,Max,Hour,Minute]
54,7,ZN001:WALL003,Surface Inside Face Convection Heat Transfer Coefficient [W/m2-K] !Daily [Value,Min,Hour,Minute,Max,Hour,Minute]
55,7,ZN001:WALL003,Surface Outside Face Convection Heat Transfer Coefficient [W/m2-K] !Daily [Value,Min,Hour,Minute,Max,Hour,Minute]
56,7,ZN001:WALL004,Surface Inside Face Temperature [C] !Daily [Value,Min,Hour,Minute,Max,Hour,Minute]
57,7,ZN001:WALL004,Surface Outside Face Temperature [C] !Daily [Value,Min,Hour,Minute,Max,Hour,Minute]
58,7,ZN001:WALL004,Surface Inside Face Convection Heat Transfer Coefficient [W/m2-K] !Daily [Value,Min,Hour,Minute,Max,Hour,Minute]
59,7,ZN001:WALL004,Surface Outside Face Convection Heat Transfer Coefficient [W/m2-K] !Daily [Value,Min,Hour,Minute,Max,Hour,Minute]
60,7,ZN001:FLR001,Surface Inside Face Temperature [C] !Daily [Value,Min,Hour,Minute,Max,Hour,Minute]
61,7,ZN001:FLR001,Surface Outside Face Temperature [C] !Daily [Value,Min,Hour,Minute,Max,Hour,Minute]
62,7,ZN001:FLR001,Surface Inside Face Convection Heat Transfer Coefficient [W/m2-K] !Daily [Value,Min,Hour,Minute,Max,Hour,Minute]
63,7,ZN001:ROOF001,Surface Inside Face Temperature [C] !Daily [Value,Min,Hour,Minute,Max,Hour,Minute]
64,7,ZN001:ROOF001,Surface Outside Face Temperature [C] !Daily [Value,Min,Hour,Minute,Max,Hour,Minute]
65,7,ZN001:ROOF001,Surface Inside Face Convection Heat Transfer Coefficient [W/m2-K] !Daily [Value,Min,Hour,Minute,Max,Hour,Minute]
66,7,ZN001:ROOF001,Surface Outside Face Convection Heat Transfer Coefficient [W/m2-K] !Daily [Value,Min,Hour,Minute,Max,Hour,Minute]
67,1,ZONE ONE,Zone Mean Radiant Temperature [C] !Hourly
68,1,ZONE ONE,Zone Mean Air Temperature [C] !Hourly
69,1,ZONE ONE,Zone Air Heat Balance Surface Convection Rate [W] !Hourly
70,1,ZONE ONE,Zone Air Heat Balance Air Energy Storage Rate [W] !Hourly
End of Data Dictionary
1,DENVER CENTENNIAL  GOLDEN   N ANN HTG 99% CONDNS DB,  48.20,  17.20,   1.00, 130.00
2,1,12,21, 0, 1, 0.00,60.00,WinterDesignDay
6,-15.5
40,0.0
67,-18.2082969384829
68,-18.2108292660741
69,-3.521060653048647E-002
70,-3.528029155096492E-002
2,1,12,21, 0, 2, 0.00,60.00,WinterDesignDay
6,-15.5
40,0.0
67,-18.2083853343761
68,-18.2109156830797
69,-3.465826305367248E-002
70,-3.472685643076827E-002
2,1,12,21, 0, 3, 0.00,60.00,WinterDesignDay
6,-15.5
40,0.0
67,-18.2084723423347
68,-18.2110007444309
69,-3.411457192303402E-002
70,-3.418209071180427E-002
2,1,12,21, 0, 4, 0.00,60.00,WinterDesignDay
6,-15.5
40,0.0
67,-18.2085579841438
68,-18.2110844713653
69,-3.357939803741194E-002
70,-3.364585901960684E-002
2,1,12,21, 0, 5, 0.00,60.00,WinterDesignDay
6,-15.5
40,0.0
67,-18.2086422812466
68,-18.2111668847886
69,-3.305260839361113E-002
70,-3.311802808244715E-002
2,1,12,21, 0, 6, 0.00,60.00,WinterDesignDay
6,-15.5
40,0.0
67,-18.2087252547499
68,-18.2112480052803
69,-3.253407204635561E-002
70,-3.259846671027584E-002
2,1,12,21, 0, 7, 0.00,60.00,WinterDesignDay
6,-15.5
40,0.0
67,-18.2088069254298
68,-18.211327853098
69,-3.202366007779478E-002
70,-3.208704573522708E-002
2,1,12,21, 0, 8, 0.00,60.00,WinterDesignDay
6,-15.5
40,0.0
67,-18.2088873137363
68,-18.2114064481833
69,-3.152124557031710E-002
70,-3.158363798429562E-002
2,1,12,21, 0, 9, 0.00,60.00,WinterDesignDay
6,-15.5
40,0.0
67,-18.2089664397985
68,-18.211483810166
69,-3.102670358018900E-002
70,-3.108811826660598E-002
2,1,12,21, 0,10, 0.00,60.00,WinterDesignDay
6,-15.5
40,0.0
67,-18.20904432343
68,-18.2115599583691
69,-3.053991109378762E-002
70,-3.060036333868298E-002
2,1,12,21, 0,11, 0.00,60.00,WinterDesignDay
6,-15.5
40,0.0
67,-18.2091209841334
68,-18.2116349118139
69,-3.006074700689121E-002
70,-3.012025185290366E-002
2,1,12,21, 0,12, 0.00,60.00,WinterDesignDay
6,-15.5
40,0.0
67,-18.2091964411056
68,-18.2117086892241
69,-2.958909210280591E-002
70,-2.964766435710397E-002
2,1,12,21, 0,13, 0.00,60.00,WinterDesignDay
6,-15.5
40,0.0
67,-18.209270713242
68,-18.2117813090309
69,-2.912482900789781E-002
70,-2.918248324619867E-002
2,1,12,21, 0,14, 0.00,60.00,WinterDesignDay
6,-15.5
40,0.0
67,-18.209343819142
68,-18.2118527893774
69,-2.866784217533880E-002
70,-2.872459276214449E-002
2,1,12,21, 0,15, 0.00,60.00,WinterDesignDay
6,-15.5
40,0.0
67,-18.2094157771128
68,-18.2119231481231
69,-2.821801785594769E-002
70,-2.827387890380046E-002
2,1,12,21, 0,16, 0.00,60.00,WinterDesignDay
6,-15.5
40,0.0
67,-18.2094866051748
68,-18.211992402848
69,-2.777524406672827E-002
70,-2.783022948788669E-002
2,1,12,21, 0,17, 0.00,60.00,WinterDesignDay
6,-15.5
40,0.0
67,-18.2095563210652
68,-18.2120605708576
69,-2.733941055861022E-002
70,-2.739353405476547E-002
2,1,12,21, 0,18, 0.00,60.00,WinterDesignDay
6,-15.5
40,0.0
67,-18.2096249422434
68,-18.2121276691865
69,-2.691040880720452E-002
70,-2.696368385069737E-002
2,1,12,21, 0,19, 0.00,60.00,WinterDesignDay
6,-15.5
40,0.0
67,-18.2096924858947
68,-18.2121937146029
69,-2.648813196999589E-002
70,-2.654057183889322E-002
2,1,12,21, 0,20, 0.00,60.00,WinterDesignDay
6,-15.5
40,0.0
67,-18.2097589689345
68,-18.2122587236128
69,-2.607247486127839E-002
70,-2.612409261572918E-002
2,1,12,21, 0,21, 0.00,60.00,WinterDesignDay
6,-15.5
40,0.0
67,-18.2098244080132
68,-18.2123227124642
69,-2.566333394563136E-002
70,-2.571414244502713E-002
2,1,12,21, 0,22, 0.00,60.00,WinterDesignDay
6,-15.5
40,0.0
67,-18.2098888195198
68,-18.2123856971505
69,-2.526060728969437E-002
70,-2.531061919011311E-002
2,1,12,21, 0,23, 0.00,60.00,WinterDesignDay
6,-15.5
40,0.0
67,-18.209952219586
68,-18.2124476934153
69,-2.486419453583766E-002
70,-2.491342231362276E-002
2,1,12,21, 0,24, 0.00,60.00,WinterDesignDay
6,-15.5
40,0.0
67,-18.2100146240906
68,-18.2125087167556
69,-2.447399691249652E-002
70,-2.452245283188086E-002
3,1,12,21, 0,WinterDesignDay
44,-18.1447406760422,-18.1455059976086,24,60,-18.1438744684102, 1,15
45,-17.4635358535321,-17.4635657735997,24,60,-17.4635019894443, 1,15
46,0.531875336282852,0.531729650916371, 1,15,0.532004179784354,24,60
47,7.151445393305,7.15144442127203,24,60,7.15144649349441, 1,15
48,-18.1447406760422,-18.1455059976086,24,60,-18.1438744684102, 1,15
49,-17.4635358535321,-17.4635657735997,24,60,-17.4635019894443, 1,15
50,0.531875336282852,0.531729650916371, 1,15,0.532004179784354,24,60
51,7.151445393305,7.15144442127203,24,60,7.15144649349441, 1,15
52,-18.1405158292918,-18.1412812160257,24,60,-18.1396495480603, 1,15
53,-17.4173074949513,-17.4173367401719,24,60,-17.4172743946666, 1,15
54,0.542831695068627,0.542692020718639, 1,15,0.542955224859846,24,60
55,7.41642661603206,7.41642547634325,24,60,7.41642790597825, 1,15
56,-18.1405158292918,-18.1412812160257,24,60,-18.1396495480603, 1,15
57,-17.4173074949513,-17.4173367401719,24,60,-17.4172743946666, 1,15
58,0.542831695068627,0.542692020718639, 1,15,0.542955224859846,24,60
59,7.41642661603206,7.41642547634325,24,60,7.41642790597825, 1,15
60,-18.2157923595059,-18.2167231118059,24,60,-18.2147388727986, 1,15
61,-18.2157714288071,-18.216705871835,24,60,-18.2147137647252, 1,15
62,0.121337742417008,0.120006406688938, 1,15,0.122497211304451,24,60
63,-18.282511372892,-18.2833255531672,24,60,-18.2815898632295, 1,15
64,-20.3057767968387,-20.3057889506097,24,60,-20.3057630408805, 1,15
65,0.624306615478231,0.624305157269734, 1,15,0.624307708387771,24,60
66,8.61888120682316,8.61888088778396,24,60,8.61888156792075, 1,15
7,0.0,0, 1,15,0, 1,15
8,10.,10, 1,15,10, 1,15
4,1,12
41,30412800.,316800.,21, 1,15,316800.,21, 1,15
42,0.0,0.0,21, 1,15,0.0,21, 1,15
43,-30412800.,-316800.,21, 1,15,-316800.,21, 1,15
1,DENVER CENTENNIAL  GOLDEN   N ANN CLG 1% CONDNS DB=>MWB,  48.20,  17.20,   1.00, 130.00
2,1, 7,21, 0, 1, 0.00,60.00,SummerDesignDay
6,18.966
40,0.0
67,29.1230551803509
68,29.281912681355
69,-99.6495862465182
70,-99.5691618650728
2,1, 7,21, 0, 2, 0.00,60.00,SummerDesignDay
6,18.244
40,0.0
67,28.8337943587184
68,28.9921872324077
69,-97.3703228585228
70,-97.8827925174643
2,1, 7,21, 0, 3, 0.00,60.00,SummerDesignDay
6,17.731
40,0.0
67,28.5526535332672
68,28.7103692325898
69,-95.2379227284906
70,-95.4985482949331
2,1, 7,21, 0, 4, 0.00,60.00,SummerDesignDay
6,17.275
40,0.0
67,28.2728860277261
68,28.4317706912324
69,-95.5583046356193
70,-95.4539781697967
2,1, 7,21, 0, 5, 0.00,60.00,SummerDesignDay
6,16.914
40,0.0
67,28.0661273295009
68,28.1781721202898
69,-53.1260922198158
70,-67.985232237182
2,1, 7,21, 0, 6, 0.00,60.00,SummerDesignDay
6,16.99
40,0.0
67,28.3160809627818
68,28.2519130619184
69,84.3991550597102
70,75.6466528904269
2,1, 7,21, 0, 7, 0.00,60.00,SummerDesignDay
6,17.769
40,0.0
67,28.5921763874991
68,28.5094663476473
69,83.7829577374947
70,85.7627122947926
2,1, 7,21, 0, 8, 0.00,60.00,SummerDesignDay
6,19.783
40,0.0
67,28.928982948621
68,28.7849580354762
69,122.353497878257
70,111.87203251202
2,1, 7,21, 0, 9, 0.00,60.00,SummerDesignDay
6,22.557
40,0.0
67,29.4165807334413
68,29.2380080139401
69,174.158726728871
70,171.856780105225
2,1, 7,21, 0,10, 0.00,60.00,SummerDesignDay
6,25.255
40,0.0
67,29.8951224763383
68,29.7391583678507
69,161.622423766194
70,164.635174728983
2,1, 7,21, 0,11, 0.00,60.00,SummerDesignDay
6,27.649
40,0.0
67,30.3091405892235
68,30.1794992325177
69,137.749045332901
70,140.833315293944
2,1, 7,21, 0,12, 0.00,60.00,SummerDesignDay
6,29.454
40,0.0
67,30.6282630383293
68,30.5362458733527
69,103.99015506553
70,108.255796406992
2,1, 7,21, 0,13, 0.00,60.00,SummerDesignDay
6,30.784
40,0.0
67,31.001757342956
68,30.8715357244457
69,135.463105193007
70,128.144559638372
2,1, 7,21, 0,14, 0.00,60.00,SummerDesignDay
6,31.715
40,0.0
67,31.3927650498066
68,31.2862301278211
69,135.667492989614
70,138.710981708173
2,1, 7,21, 0,15, 0.00,60.00,SummerDesignDay
6,32.
40,0.0
67,31.6771361441245
68,31.6350682445776
69,97.1083667562906
70,102.881816411659
2,1, 7,21, 0,16, 0.00,60.00,SummerDesignDay
6,31.43
40,0.0
67,31.7921232210655
68,31.8413542928722
69,39.7514277126571
70,47.6967211677128
2,1, 7,21, 0,17, 0.00,60.00,SummerDesignDay
6,30.328
40,0.0
67,31.726766758043
68,31.8796780693685
69,-9.49065218894645
70,-4.9705819041521
2,1, 7,21, 0,18, 0.00,60.00,SummerDesignDay
6,28.922
40,0.0
67,31.5928469244249
68,31.7938239182567
69,-55.8892867727961
70,-47.2186757785256
2,1, 7,21, 0,19, 0.00,60.00,SummerDesignDay
6,26.927
40,0.0
67,31.175952813741
68,31.4654840463164
69,-180.007888560407
70,-160.440351277449
2,1, 7,21, 0,20, 0.00,60.00,SummerDesignDay
6,25.027
40,0.0
67,30.582860019503
68,30.8208947310669
69,-201.468836765694
70,-216.96862058745
2,1, 7,21, 0,21, 0.00,60.00,SummerDesignDay
6,23.545
40,0.0
67,30.2647576496991
68,30.4114879815793
69,-100.387750171715
70,-104.476033596551
2,1, 7,21, 0,22, 0.00,60.00,SummerDesignDay
6,22.177
40,0.0
67,29.9860065805277
68,30.1325953631441
69,-94.5812857962653
70,-94.1108254911684
2,1, 7,21, 0,23, 0.00,60.00,SummerDesignDay
6,20.999
40,0.0
67,29.7050991721865
68,29.8542925928312
69,-94.410796467668
70,-94.6025187551292
2,1, 7,21, 0,24, 0.00,60.00,SummerDesignDay
6,19.935
40,0.0
67,29.4182111573676
68,29.573192526264
69,-97.680379313807
70,-97.1154251298486
3,1, 7,21, 0,SummerDesignDay
44,29.9558310830827,27.400973366466, 5,45,32.5017011055761,15,15
45,29.7644681189167,15.5108075175695, 5,30,53.799477643129,13,30
46,1.11396739561863,0.170103913761384, 8,60,1.42671681415772,13,45
47,9.79255907675658,9.64859872341738, 9,30,10.1446110713669, 6,30
48,30.0114085541836,27.4193348066886, 5,30,31.8953995352048,16,30
49,30.6486349437524,15.7359782309139, 5,30,52.4236034772913, 9,15
50,1.06582467856529,0.338063166758283,17,15,1.46095821486349, 9,15
51,11.6424229911545,11.4265899082655,11,45,12.1030672953669,19,60
52,29.7355225495051,27.4177493723994, 5,30,31.8953995352048,16,30
53,25.6750426077029,15.7085021962819, 5,30,35.5223592286654,14,60
54,0.869908410339253,0.188973570396632,10,30,1.19542788262468, 5,15
55,11.6536813648815,11.4772307629834, 6,60,11.9488282336431,20,30
56,29.9930345828418,27.4082109854511, 5,45,33.3421589291255,16,60
57,30.4733957739449,15.6721973238155, 5,30,61.3428635142365,16,60
58,1.07566458431184,0.188973570397803,10,30,1.48881926444377,16,60
59,11.6491875502728,11.4261984291915,14,30,12.0809518976195, 6,30
60,29.9636166036921,28.7351380163113, 7,60,31.2128647046486,19,15
61,29.9636038145818,28.7351380163113, 8,15,31.2128647046486,19,30
62,0.955156783614069,0.271402679720514, 8,60,1.3950928052132, 5,45
63,30.0277972186564,27.8208180758195, 5,45,32.1130598266477,16,15
64,32.0662184331684,13.0393603298395, 5,30,58.8984265692941,13,30
65,0.792169022325179,0.216580880473433, 7,45,1.13206086197504,20,30
66,13.3725739288241,13.0871944965112, 8,60,13.9385175968498,19,45
7,0.0,0, 1,15,0, 1,15
8,9.,9, 1,15,9, 1,15
4,1, 7
41,30412800.,316800.,21, 1,15,316800.,21, 1,15
42,0.0,0.0,21, 1,15,0.0,21, 1,15
43,-30412800.,-316800.,21, 1,15,-316800.,21, 1,15
1,BRATISLAVA - SVK IWEC Data WMO#=118160,  48.20,  17.20,   1.00, 130.00
2,1, 1, 1, 0, 1, 0.00,60.00,Tuesday        
6,-6.250000000000000E-002
40,0.0
67,-0.963094945260108
68,-0.960098418937159
69,-1.40088579407852
70,-2.10222128823299
2,1, 1, 1, 0, 2, 0.00,60.00,Tuesday        
6,-0.35
40,0.0
67,-0.972579173644913
68,-0.963034335652384
69,-2.78078874138748
70,-1.99068974096458
2,1, 1, 1, 0, 3, 0.00,60.00,Tuesday        
6,-0.625
40,0.0
67,-0.993007783897919
68,-0.975906752894003
69,-6.12405223763442
70,-6.04404434115359
2,1, 1, 1, 0, 4, 0.00,60.00,Tuesday        
6,-0.825
40,0.0
67,-1.01938220299539
68,-0.99531176535947
69,-9.2372921985392
70,-8.69944856058041
2,1, 1, 1, 0, 5, 0.00,60.00,Tuesday        
6,-1.025
40,0.0
67,-1.06813999542386
68,-1.02861123791915
69,-17.4877398277066
70,-16.061133171304
2,1, 1, 1, 0, 6, 0.00,60.00,Tuesday        
6,-1.225
40,0.0
67,-1.13321118706039
68,-1.08410876116513
69,-24.1108889878086
70,-23.6237490160396
2,1, 1, 1, 0, 7, 0.00,60.00,Tuesday        
6,-0.8625
40,0.0
67,-1.10647988893282
68,-1.1161091591927
69,5.66111499787547
70,0.170222076430643
2,1, 1, 1, 0, 8, 0.00,60.00,Tuesday        
6,-0.225
40,0.0
67,-1.04199920978436
68,-1.08349929866243
69,14.908155113802
70,14.9441942783755
2,1, 1, 1, 0, 9, 0.00,60.00,Tuesday        
6,0.0
40,0.0
67,-0.987810690048906
68,-1.03978675184483
69,18.8139606388397
70,18.2029397610736
2,1, 1, 1, 0,10, 0.00,60.00,Tuesday        
6,-0.125
40,0.0
67,-0.917394354029042
68,-0.978928564284673
69,26.9900210098068
70,26.462190729013
2,1, 1, 1, 0,11, 0.00,60.00,Tuesday        
6,-7.500000000000000E-002
40,0.0
67,-0.824703628631067
68,-0.897973704125303
69,37.4630749014113
70,35.3341449615977
2,1, 1, 1, 0,12, 0.00,60.00,Tuesday        
6,0.0
40,0.0
67,-0.739079071087377
68,-0.796059368313266
69,35.30971053091
70,37.3634300473785
2,1, 1, 1, 0,13, 0.00,60.00,Tuesday        
6,-0.125
40,0.0
67,-0.715622500056317
68,-0.730441577335769
69,14.0710237210453
70,16.906941444289
2,1, 1, 1, 0,14, 0.00,60.00,Tuesday        
6,-7.500000000000000E-002
40,0.0
67,-0.727366320522432
68,-0.714674408285374
69,0.193958649346278
70,1.22595306734627
2,1, 1, 1, 0,15, 0.00,60.00,Tuesday        
6,0.0
40,0.0
67,-0.776850023550939
68,-0.730995022835827
69,-13.4476245620412
70,-11.5528764298624
2,1, 1, 1, 0,16, 0.00,60.00,Tuesday        
6,-6.250000000000000E-002
40,0.0
67,-0.858164277823246
68,-0.785203553180253
69,-27.5447394010754
70,-26.0041384475759
2,1, 1, 1, 0,17, 0.00,60.00,Tuesday        
6,-3.750000000000000E-002
40,0.0
67,-0.906386166515561
68,-0.857127164178458
69,-22.4015615234531
70,-24.5221997152076
2,1, 1, 1, 0,18, 0.00,60.00,Tuesday        
6,0.0
40,0.0
67,-0.918376728819459
68,-0.896394026043
69,-9.70940472430969
70,-10.6081941630686
2,1, 1, 1, 0,19, 0.00,60.00,Tuesday        
6,-0.125
40,0.0
67,-0.926924788319241
68,-0.914593544664818
69,-4.80826337517382
70,-5.26023052909422
2,1, 1, 1, 0,20, 0.00,60.00,Tuesday        
6,-7.500000000000000E-002
40,0.0
67,-0.912041942531566
68,-0.919408656191316
69,1.96816561031114
70,0.835790735789773
2,1, 1, 1, 0,21, 0.00,60.00,Tuesday        
6,0.0
40,0.0
67,-0.908435835690176
68,-0.911948463787093
69,1.04096958603814
70,2.02093327486696
2,1, 1, 1, 0,22, 0.00,60.00,Tuesday        
6,-6.250000000000000E-002
40,0.0
67,-0.9297111169404
68,-0.917414405573571
69,-4.61324762524137
70,-4.12490882397078
2,1, 1, 1, 0,23, 0.00,60.00,Tuesday        
6,-3.750000000000000E-002
40,0.0
67,-0.950220628835247
68,-0.932948712341195
69,-6.94163659231728
70,-6.74291231534872
2,1, 1, 1, 0,24, 0.00,60.00,Tuesday        
6,0.0
40,0.0
67,-0.965714600091872
68,-0.951029615124338
69,-6.12295579328586
70,-6.47301522645049
3,1, 1, 1, 0,Tuesday        
44,-0.909209030039504,-1.23648576593293, 6,60,-0.583794612713661,13,30
45,-0.672404871155449,-2.31908714079652, 6,60,1.30006785789534,12,30
46,0.465142419776455,0.126501770533076, 1,60,0.763611592103448,12,45
47,8.13945865152621,5.16324688049918,16,60,12.3305587379831, 3,60
48,-0.909322153935685,-1.23648576593293, 6,60,-0.585180146906698,13,30
49,-0.67389112169074,-2.31908714079652, 6,60,1.26272844870941,12,30
50,0.46518217356761,0.126501770532734, 1,60,0.763323839792453,12,15
51,8.1355236819897,5.16324688049918,16,60,12.3305587379831, 3,60
52,-0.909996578944348,-1.2337022712996, 6,60,-0.582823869465575,13,30
53,-0.681756961282078,-2.28335709913867, 6,60,1.29509599637981,12,30
54,0.464780516323064,0.149442898159426,22,15,0.766215111670906,12,15
55,7.60216572681516,5.58224363489535,16,60,10.2059753605173, 3,60
56,-0.909788575584789,-1.23370227129893, 6,60,-0.582606115321496,13,30
57,-0.679293983434737,-2.28335709913667, 6,60,1.29509599578141,12,30
58,0.467464125853512,0.126501770533076, 1,60,0.766215026481966,12,15
59,7.69502431870279,5.38330372718343,24,60,12.1534370541661,10,60
60,-0.929338446348423,-1.02573075045368, 8,45,-0.852048193349452,16,15
61,-0.929323684370577,-1.02573075045368, 8,60,-0.852048193349452,16,30
62,0.449744503912012,0.146290028773663,10,30,0.712514806322345, 7,30
63,-0.947526260165961,-1.22159185344585, 6,60,-0.667392982786524,13,30
64,-1.65321530860293,-4.0342532926315, 6,60,1.57931812764103,12,30
65,0.479641900834226,0.102302878058841, 8,15,0.73073869275502, 7,15
66,9.42884591612444,5.98596175180967,16,60,14.2960451363114, 3,60
7,0.0,0, 1,15,0, 1,15
8,3.,3, 1,15,3, 1,15
2,2, 1, 2, 0, 1, 0.00,60.00,Wednesday      
6,-0.1875
40,0.0
67,-0.978545745120958
68,-0.964880444962044
69,-5.04364255725039
70,-4.98038039311918
2,2, 1, 2, 0, 2, 0.00,60.00,Wednesday      
6,-0.7375
40,0.0
67,-1.02972780228273
68,-0.990290895033184
69,-17.0878373195362
70,-14.7758766347803
2,2, 1, 2, 0, 3, 0.00,60.00,Wednesday      
6,-1.
40,0.0
67,-1.11013050195067
68,-1.05174035869957
69,-29.8893090582306
70,-28.1950648984573
2,2, 1, 2, 0, 4, 0.00,60.00,Wednesday      
6,-0.875
40,0.0
67,-1.14015256341217
68,-1.11559692028986
69,-10.9512274027556
70,-15.8881622296747
2,2, 1, 2, 0, 5, 0.00,60.00,Wednesday      
6,-0.925
40,0.0
67,-1.15535202966246
68,-1.13089504451352
69,-7.82523310299607
70,-6.01400053655495
2,2, 1, 2, 0, 6, 0.00,60.00,Wednesday      
6,-1.
40,0.0
67,-1.1853852116216
68,-1.15771275215944
69,-10.6975408046509
70,-11.0198844339324
2,2, 1, 2, 0, 7, 0.00,60.00,Wednesday      
6,-0.875
40,0.0
67,-1.19897857634851
68,-1.18027479936296
69,-5.82602796812713
70,-6.64306509992768
2,2, 1, 2, 0, 8, 0.00,60.00,Wednesday      
6,-0.925
40,0.0
67,-1.24223304100667
68,-1.20517055758216
69,-16.0451751083188
70,-14.1530873560132
2,2, 1, 2, 0, 9, 0.00,60.00,Wednesday      
6,-1.
40,0.0
67,-1.20724783769815
68,-1.22412758603931
69,8.38468208121687
70,3.48357979138794
2,2, 1, 2, 0,10, 0.00,60.00,Wednesday      
6,-1.375
40,0.0
67,-1.13338099900947
68,-1.18339733665091
69,17.7059758586172
70,18.1426237779484
2,2, 1, 2, 0,11, 0.00,60.00,Wednesday      
6,-1.85
40,0.0
67,-1.05949113986934
68,-1.12966842373567
69,25.4990704583119
70,23.8639004887922
2,2, 1, 2, 0,12, 0.00,60.00,Wednesday      
6,-1.375
40,0.0
67,-0.936103512993587
68,-1.03428773752775
69,48.2786362108949
70,45.375460309989
2,2, 1, 2, 0,13, 0.00,60.00,Wednesday      
6,-1.
40,0.0
67,-0.897126418197261
68,-0.929559198383828
69,22.0537325375087
70,28.2666094659802
2,2, 1, 2, 0,14, 0.00,60.00,Wednesday      
6,-1.
40,0.0
67,-0.944875930679298
68,-0.914436672185595
69,-6.86895060179628
70,-4.41916331773648
2,2, 1, 2, 0,15, 0.00,60.00,Wednesday      
6,-1.
40,0.0
67,-1.03395954015192
68,-0.959188219264598
69,-27.1289001016999
70,-24.7146430368989
2,2, 1, 2, 0,16, 0.00,60.00,Wednesday      
6,-0.875
40,0.0
67,-1.12138960432524
68,-1.04819315894765
69,-36.1874385353808
70,-36.7452621588547
2,2, 1, 2, 0,17, 0.00,60.00,Wednesday      
6,-0.925
40,0.0
67,-1.16724555394251
68,-1.12535415191201
69,-20.8435778905806
70,-23.1195193172762
2,2, 1, 2, 0,18, 0.00,60.00,Wednesday      
6,-1.
40,0.0
67,-1.2026200282466
68,-1.16755910045832
69,-15.3676960025352
70,-14.8386554757983
2,2, 1, 2, 0,19, 0.00,60.00,Wednesday      
6,-0.9375
40,0.0
67,-1.25577233656334
68,-1.21303746651432
69,-20.119046913396
70,-19.3425091352235
2,2, 1, 2, 0,20, 0.00,60.00,Wednesday      
6,-0.9625
40,0.0
67,-1.27868575416387
68,-1.25591605857349
69,-8.83392868771464
70,-11.4508301191957
2,2, 1, 2, 0,21, 0.00,60.00,Wednesday      
6,-1.
40,0.0
67,-1.3517119103667
68,-1.29267795511227
69,-29.1825742877503
70,-23.6316164725182
2,2, 1, 2, 0,22, 0.00,60.00,Wednesday      
6,-0.875
40,0.0
67,-1.38599646549124
68,-1.36251308274071
69,-10.2467757375848
70,-16.9870016623699
2,2, 1, 2, 0,23, 0.00,60.00,Wednesday      
6,-0.925
40,0.0
67,-1.43585938099477
68,-1.38752396599402
69,-21.6181080780991
70,-16.2869532934659
2,2, 1, 2, 0,24, 0.00,60.00,Wednesday      
6,-1.
40,0.0
67,-1.50060757781173
68,-1.45493636881931
69,-22.5563333059312
70,-24.7766999730306
3,2, 1, 2, 0,Wednesday      
44,-1.1918867727199,-1.59859092013337,24,60,-0.778773478125623,12,60
45,-1.56841929835359,-2.73929440443093,23,60,0.916228183997527,12,60
46,0.568651013747904,0.239679636630495, 9,60,0.774067883783983,13,15
47,4.76797919519948,1.50954272495653,23,60,7.74947712680367, 2,60
48,-1.1906995921623,-1.59859053371506,24,60,-0.780967804280755,12,60
49,-1.55329452329424,-2.72765802992399,23,60,0.886216600053657,12,60
50,0.565587215772083,0.250999449359803,15,15,0.771315693437061,13,15
51,4.92155444911897,1.53021925002536,21,60,7.57027929483429, 2,15
52,-1.18985641688196,-1.59859045708849,24,60,-0.767872289507921,12,60
53,-1.54190158699516,-2.72543316217635,23,60,1.06417789827706,12,60
54,0.568702019989915,0.228999083223696,15,15,0.787458934213227,13,15
55,4.71178140182608,1.53411256847369,21,60,7.72480429903975,17,60
56,-1.19107471923081,-1.5985908594647,24,60,-0.767815391792681,12,60
57,-1.55753347557049,-2.74374903411912,21,60,1.06491133048874,12,60
58,0.571701013528526,0.228999083213212,15,15,0.787527639704175,13,15
59,4.58879042199225,1.48256302389445,21,60,7.74947712680367, 2,60
60,-1.0875765802656,-1.30998660052548,24,60,-0.922082324640989, 1,15
61,-1.08350940821621,-1.29921320881771,24,60,-0.919538083784254, 1,15
62,0.59299687660947,0.162830496486499,12,15,0.826319169166724,24,60
63,-1.21037876435735,-1.62789689445595,24,60,-0.841385522005514,12,60
64,-3.11766718813914,-6.31888928078741,21,60,1.58782925662106,12,60
65,0.609725218687349,0.1,14,45,0.860475535228906,22,15
66,5.21362131885987,1.2703171591338,21,60,8.99703990964136, 2,60
7,0.0,0, 1,15,0, 1,15
8,4.,4, 1,15,4, 1,15
2,3, 1, 3, 0, 1, 0.00,60.00,Thursday       
6,-1.125
40,0.0
67,-1.51952924340206
68,-1.49570648598371
69,-7.44900465755539
70,-9.64883712349615
2,3, 1, 3, 0, 2, 0.00,60.00,Thursday       
6,-1.075
40,0.0
67,-1.52188644192572
68,-1.50467258307386
69,-2.99285886558014
70,-2.46583075310395
2,3, 1, 3, 0, 3, 0.00,60.00,Thursday       
6,-1.
40,0.0
67,-1.53888713077455
68,-1.51703273887834
69,-6.70157603303526
70,-6.20527699254947
2,3, 1, 3, 0, 4, 0.00,60.00,Thursday       
6,-0.9375
40,0.0
67,-1.55991188384972
68,-1.5372139783213
69,-7.94325613685827
70,-8.04699768064509
2,3, 1, 3, 0, 5, 0.00,60.00,Thursday       
6,-0.9625
40,0.0
67,-1.58929471503348
68,-1.56099118430433
69,-11.1413047517871
70,-10.474425674929
2,3, 1, 3, 0, 6, 0.00,60.00,Thursday       
6,-1.
40,0.0
67,-1.59014071293828
68,-1.58096021513279
69,-1.31636269159538
70,-3.39107534530355
2,3, 1, 3, 0, 7, 0.00,60.00,Thursday       
6,-1.
40,0.0
67,-1.61892657699937
68,-1.58940379623321
69,-11.1160512215069
70,-8.02476574352442
2,3, 1, 3, 0, 8, 0.00,60.00,Thursday       
6,-1.
40,0.0
67,-1.61242617871855
68,-1.61244115227016
69,1.41234422668044
70,-2.78093088512639
2,3, 1, 3, 0, 9, 0.00,60.00,Thursday       
6,-1.
40,0.0
67,-1.55642919428524
68,-1.59055360036167
69,12.7745502769244
70,12.2179467414283
2,3, 1, 3, 0,10, 0.00,60.00,Thursday       
6,-0.9375
40,0.0
67,-1.3845792825009
68,-1.52085942178957
69,61.8762402656038
70,47.766948851931
2,3, 1, 3, 0,11, 0.00,60.00,Thursday       
6,-0.9625
40,0.0
67,-0.918260158945991
68,-1.17078745774586
69,201.388768092459
70,187.213390540026
2,3, 1, 3, 0,12, 0.00,60.00,Thursday       
6,-0.375
40,0.0
67,-0.408880409231765
68,-0.58572361493427
69,220.859223203642
70,226.794384556376
2,3, 1, 3, 0,13, 0.00,60.00,Thursday       
6,0.75
40,0.0
67,-2.209230736591531E-002
68,-8.117054061399438E-002
69,160.459281338761
70,169.592484443802
2,3, 1, 3, 0,14, 0.00,60.00,Thursday       
6,1.075
40,0.0
67,0.164661980997919
68,0.231830891706382
69,74.9304703308643
70,86.8507356770443
2,3, 1, 3, 0,15, 0.00,60.00,Thursday       
6,0.375
40,0.0
67,-1.804503457510030E-002
68,0.232104189208164
69,-88.7486707119432
70,-64.4918103987421
2,3, 1, 3, 0,16, 0.00,60.00,Thursday       
6,-0.1875
40,0.0
67,-0.58045086810705
68,-0.225698808238853
69,-223.846763949526
70,-220.944907226849
2,3, 1, 3, 0,17, 0.00,60.00,Thursday       
6,-1.3625
40,0.0
67,-1.0071976460138
68,-0.769699837468623
69,-181.382751229927
70,-188.294695985243
2,3, 1, 3, 0,18, 0.00,60.00,Thursday       
6,-2.
40,0.0
67,-1.21519769603955
68,-1.10180778438631
69,-77.8259017591019
70,-89.0670394252954
2,3, 1, 3, 0,19, 0.00,60.00,Thursday       
6,-3.0625
40,0.0
67,-1.4874815396071
68,-1.32359103374739
69,-114.464395010238
70,-103.793089448596
2,3, 1, 3, 0,20, 0.00,60.00,Thursday       
6,-3.8875
40,0.0
67,-1.73383261667198
68,-1.60257292874247
69,-83.4175991409911
70,-92.2334349188668
2,3, 1, 3, 0,21, 0.00,60.00,Thursday       
6,-4.625
40,0.0
67,-1.94038931105517
68,-1.80452155423308
69,-80.6284081286767
70,-78.4047745889287
2,3, 1, 3, 0,22, 0.00,60.00,Thursday       
6,-5.25
40,0.0
67,-2.14465307789492
68,-2.01150644649811
69,-76.5142190109693
70,-77.895631077794
2,3, 1, 3, 0,23, 0.00,60.00,Thursday       
6,-5.15
40,0.0
67,-2.29735853150156
68,-2.18481799768981
69,-55.118131720871
70,-58.4761684747879
2,3, 1, 3, 0,24, 0.00,60.00,Thursday       
6,-5.625
40,0.0
67,-2.48365680817514
68,-2.34638091282612
69,-77.7178450621358
70,-72.5674274151539
3,3, 1, 3, 0,Thursday       
44,-1.12886182879655,-2.9933422471598,24,60,2.00486937907649,14,30
45,1.50504550492108,-9.2502438007364,24,60,31.0527613942693,13,30
46,0.892985588413676,0.225690386002616, 9,15,1.66197144062047,13,45
47,4.55626107814325,1.69881387935449, 1,15,8.77056956162861,13,60
48,-1.3901674356397,-2.99334224715979,24,60,0.327343759969577,14,30
49,-2.42304153012283,-9.2502438007364,24,60,6.33145386731919,12,15
50,0.764303854752037,0.171350843642778,15,15,1.13223164108174,11,60
51,4.56401682132544,1.69881296255052, 1,15,9.64423590103824,13,60
52,-1.41040035001566,-2.9933422471598,24,60,0.327343760846092,14,30
53,-2.7108915264719,-9.2502438007364,24,60,3.64555288166278,13,30
54,0.75695556847935,0.171350843679596,15,15,1.07001883024477,24,60
55,4.34442627974687,1.69881278080094, 1,15,9.64423623793432,13,60
56,-1.32504802078108,-2.9933422471598,24,60,1.14648183901743,14,60
57,-1.5166752508823,-9.2502438007364,24,60,14.5715406960428,14,60
58,0.811915077300564,0.225675974262191, 9,15,1.25737101583906,14,45
59,4.26200956228238,1.83995687784154,19,60,8.51835733732621,13,60
60,-1.23755493698203,-1.76948756872409,24,60,-0.641276672569892,16,15
61,-1.2327684685633,-1.72577550154705,24,60,-0.641276672569892,16,30