Program Version,EnergyPlus, Linux Version 1.4.0.025
1,5,Environment Title[],Latitude[degrees],Longitude[degrees],Time Zone[],Elevation[m]
2,6,Day of Simulation[],Month[],Day of Month[],DST Indicator[1=yes 0=no],Hour[],StartMinute[],EndMinute[],DayType
3,3,Cumulative Day of Simulation[],Month[],Day of Month[],DST Indicator[1=yes 0=no],DayType  ! When Daily Report Variables Requested
4,2,Cumulative Days of Simulation[],Month[]  ! When Monthly Report Variables Requested
5,1,Cumulative Days of Simulation[] ! When Run Period Report Variables Requested
1369,2,LIVING ZONE,Zone Infiltration Sensible Heat Loss [J] !TimeStep,REPORTSCH
1370,2,LIVING ZONE,Zone Infiltration Sensible Heat Gain [J] !TimeStep,REPORTSCH
1374,2,GARAGE ZONE,Zone Infiltration Sensible Heat Loss [J] !TimeStep,REPORTSCH
1375,2,GARAGE ZONE,Zone Infiltration Sensible Heat Gain [J] !TimeStep,REPORTSCH
1379,2,ATTIC ZONE,Zone Infiltration Sensible Heat Loss [J] !TimeStep,REPORTSCH
1380,2,ATTIC ZONE,Zone Infiltration Sensible Heat Gain [J] !TimeStep,REPORTSCH
1384,2,LIVING ZONE,Zone Ventilation Sensible Heat Loss [J] !TimeStep,REPORTSCH
1385,2,LIVING ZONE,Zone Ventilation Sensible Heat Gain [J] !TimeStep,REPORTSCH
1408,2,LIVING ZONE,AirflowNetwork Node Temperature [C] !TimeStep,REPORTSCH
1411,2,GARAGE ZONE,AirflowNetwork Node Temperature [C] !TimeStep,REPORTSCH
1414,2,ATTIC ZONE,AirflowNetwork Node Temperature [C] !TimeStep,REPORTSCH
1417,2,FACADE1,AirflowNetwork Node Temperature [C] !TimeStep,REPORTSCH
1421,2,FACADE2,AirflowNetwork Node Temperature [C] !TimeStep,REPORTSCH
1425,2,FACADE3,AirflowNetwork Node Temperature [C] !TimeStep,REPORTSCH
1429,2,FACADE4,AirflowNetwork Node Temperature [C] !TimeStep,REPORTSCH
1433,2,ROOF,AirflowNetwork Node Temperature [C] !TimeStep,REPORTSCH
1437,2,EQUIPMENTINLETNODE,AirflowNetwork Node Temperature [C] !TimeStep,REPORTSCH
1440,2,SPLITTERNODE,AirflowNetwork Node Temperature [C] !TimeStep,REPORTSCH
1443,2,ZONESUPPLYNODE,AirflowNetwork Node Temperature [C] !TimeStep,REPORTSCH
1446,2,ZONESUPPLYREGISTERNODE,AirflowNetwork Node Temperature [C] !TimeStep,REPORTSCH
1449,2,ZONEOUTLETNODE,AirflowNetwork Node Temperature [C] !TimeStep,REPORTSCH
1452,2,ZONERETURNNODE,AirflowNetwork Node Temperature [C] !TimeStep,REPORTSCH
1455,2,MIXERNODE,AirflowNetwork Node Temperature [C] !TimeStep,REPORTSCH
1458,2,MAINRETURNNODE,AirflowNetwork Node Temperature [C] !TimeStep,REPORTSCH
1461,2,MAININLETNODE,AirflowNetwork Node Temperature [C] !TimeStep,REPORTSCH
1464,2,FANINLETNODE,AirflowNetwork Node Temperature [C] !TimeStep,REPORTSCH
1467,2,FANOUTLETNODE,AirflowNetwork Node Temperature [C] !TimeStep,REPORTSCH
1470,2,HEATINGINLETNODE,AirflowNetwork Node Temperature [C] !TimeStep,REPORTSCH
1473,2,HEATINGOUTLETNODE,AirflowNetwork Node Temperature [C] !TimeStep,REPORTSCH
1587,2,LIVING ZONE,AirflowNetwork Infiltration Sensible Gain [J] !TimeStep,REPORTSCH
1589,2,LIVING ZONE,AirflowNetwork Mixing Sensible Gain [J] !TimeStep,REPORTSCH
1591,2,LIVING ZONE,AirflowNetwork Infiltration Sensible Loss [J] !TimeStep,REPORTSCH
1593,2,LIVING ZONE,AirflowNetwork Mixing Sensible Loss [J] !TimeStep,REPORTSCH
1603,2,LIVING ZONE,AirflowNetwork Duct Leak Sensible Gain [J] !TimeStep,REPORTSCH
1605,2,LIVING ZONE,AirflowNetwork Duct Leak Sensible Loss [J] !TimeStep,REPORTSCH
1611,2,LIVING ZONE,AirflowNetwork Duct Conduction Sensible Gain [J] !TimeStep,REPORTSCH
1613,2,LIVING ZONE,AirflowNetwork Duct Conduction Sensible Loss [J] !TimeStep,REPORTSCH
1618,2,LIVING ZONE,AirflowNetwork Distribution Sensible Gain Rate [W] !TimeStep,REPORTSCH
1619,2,LIVING ZONE,AirflowNetwork Distribution Sensible Gain [J] !TimeStep,REPORTSCH
1620,2,LIVING ZONE,AirflowNetwork Distribution Sensible Loss Rate [W] !TimeStep,REPORTSCH
1621,2,LIVING ZONE,AirflowNetwork Distribution Sensible Loss [J] !TimeStep,REPORTSCH
1627,2,GARAGE ZONE,AirflowNetwork Infiltration Sensible Gain [J] !TimeStep,REPORTSCH
1629,2,GARAGE ZONE,AirflowNetwork Mixing Sensible Gain [J] !TimeStep,REPORTSCH
1631,2,GARAGE ZONE,AirflowNetwork Infiltration Sensible Loss [J] !TimeStep,REPORTSCH
1633,2,GARAGE ZONE,AirflowNetwork Mixing Sensible Loss [J] !TimeStep,REPORTSCH
1643,2,GARAGE ZONE,AirflowNetwork Duct Leak Sensible Gain [J] !TimeStep,REPORTSCH
1645,2,GARAGE ZONE,AirflowNetwork Duct Leak Sensible Loss [J] !TimeStep,REPORTSCH
1651,2,GARAGE ZONE,AirflowNetwork Duct Conduction Sensible Gain [J] !TimeStep,REPORTSCH
1653,2,GARAGE ZONE,AirflowNetwork Duct Conduction Sensible Loss [J] !TimeStep,REPORTSCH
1658,2,GARAGE ZONE,AirflowNetwork Distribution Sensible Gain Rate [W] !TimeStep,REPORTSCH
1659,2,GARAGE ZONE,AirflowNetwork Distribution Sensible Gain [J] !TimeStep,REPORTSCH
1660,2,GARAGE ZONE,AirflowNetwork Distribution Sensible Loss Rate [W] !TimeStep,REPORTSCH
1661,2,GARAGE ZONE,AirflowNetwork Distribution Sensible Loss [J] !TimeStep,REPORTSCH
1667,2,ATTIC ZONE,AirflowNetwork Infiltration Sensible Gain [J] !TimeStep,REPORTSCH
1669,2,ATTIC ZONE,AirflowNetwork Mixing Sensible Gain [J] !TimeStep,REPORTSCH
1671,2,ATTIC ZONE,AirflowNetwork Infiltration Sensible Loss [J] !TimeStep,REPORTSCH
1673,2,ATTIC ZONE,AirflowNetwork Mixing Sensible Loss [J] !TimeStep,REPORTSCH
1683,2,ATTIC ZONE,AirflowNetwork Duct Leak Sensible Gain [J] !TimeStep,REPORTSCH
1685,2,ATTIC ZONE,AirflowNetwork Duct Leak Sensible Loss [J] !TimeStep,REPORTSCH
1691,2,ATTIC ZONE,AirflowNetwork Duct Conduction Sensible Gain [J] !TimeStep,REPORTSCH
1693,2,ATTIC ZONE,AirflowNetwork Duct Conduction Sensible Loss [J] !TimeStep,REPORTSCH
1698,2,ATTIC ZONE,AirflowNetwork Distribution Sensible Gain Rate [W] !TimeStep,REPORTSCH
1699,2,ATTIC ZONE,AirflowNetwork Distribution Sensible Gain [J] !TimeStep,REPORTSCH
1700,2,ATTIC ZONE,AirflowNetwork Distribution Sensible Loss Rate [W] !TimeStep,REPORTSCH
1701,2,ATTIC ZONE,AirflowNetwork Distribution Sensible Loss [J] !TimeStep,REPORTSCH
1721,2,LIVING ZONE,Zone/Sys Sensible Heating Energy[J] !TimeStep,REPORTSCH
1747,2,LIVING ZONE,Zone/Sys Sensible Cooling Energy[J] !TimeStep,REPORTSCH
1760,2,LIVING ZONE,Zone/Sys Air Temperature[C] !TimeStep,REPORTSCH
1770,2,GARAGE ZONE,Zone/Sys Sensible Heating Energy[J] !TimeStep,REPORTSCH
1781,2,GARAGE ZONE,Zone/Sys Sensible Cooling Energy[J] !TimeStep,REPORTSCH
1789,2,GARAGE ZONE,Zone/Sys Air Temperature[C] !TimeStep,REPORTSCH
1799,2,ATTIC ZONE,Zone/Sys Sensible Heating Energy[J] !TimeStep,REPORTSCH
1810,2,ATTIC ZONE,Zone/Sys Sensible Cooling Energy[J] !TimeStep,REPORTSCH
1818,2,ATTIC ZONE,Zone/Sys Air Temperature[C] !TimeStep,REPORTSCH
1839,2,ACDXCOIL 1,DX Coil Total Cooling Energy[J] !TimeStep,REPORTSCH
1864,2,MAIN HEATING COIL 1,Heating Coil Energy[J] !TimeStep,REPORTSCH
End of Data Dictionary
1,CHICAGO_IL_USA ANNUAL HEATING 99% DESIGN CONDITIONS DB,  37.62,-122.38,  -8.00,   5.00
2,1, 1,21, 0, 1, 0.00,10.00,WinterDesignDay
1369,0.0
1370,0.0
1374,0.0
1375,0.0
1379,0.0
1380,0.0
1384,0.0
1385,0.0
1408,21.75448975846225
1411,-11.51789405873086
1414,-2.124987019363049
1417,-17.29025000230098
1421,-17.29025000230098
1425,-17.29025000230098
1429,-17.29025000230098
1433,-17.29025000230098
1437,34.25730066510314
1440,34.20715866569545
1443,33.95748334991793
1446,33.66889713255898
1449,21.7544897584613
1452,20.28175130444776
1455,20.28164646543751
1458,20.28161151917757
1461,20.28161151917671
1464,20.28157657295517
1467,20.75331422965413
1470,20.75331422965413
1473,34.25730066510319
1587,0.0
1589,0.0
1591,1782480.928620481
1593,1081395.126203529
1603,0.0
1605,0.0
1611,0.0
1613,0.0
1618,0.0
1619,0.0
1620,0.0
1621,0.0
1627,0.0
1629,309355.2932477866
1631,142728.0092985345
1633,0.0
1643,0.0
1645,0.0
1651,149.8518866912411
1653,0.0
1658,0.2497531444854019
1659,149.8518866912411
1660,0.0
1661,0.0
1667,0.0
1669,0.0
1671,0.0
1673,0.0
1683,4371409.921092808
1685,0.0
1691,1676795.466062026
1693,0.0
1698,10080.34231192472
1699,6048205.387154834
1700,0.0
1701,0.0
1721,8774515.550311461
1747,0.0
1760,21.75447735712936
1770,0.0
1781,0.0
1789,-11.51789854230888
1799,0.0
1810,0.0
1818,-2.124987342611285
1839,0.0
1864,11581182.26931942
2,1, 1,21, 0, 1,10.00,20.00,WinterDesignDay
1369,0.0
1370,0.0
1374,0.0
1375,0.0
1379,0.0
1380,0.0
1384,0.0
1385,0.0
1408,21.75448975505523
1411,-11.51789854230889
1414,-2.124987342611285
1417,-17.29025000230098
1421,-17.29025000230098
1425,-17.29025000230098
1429,-17.29025000230098
1433,-17.29025000230098
1437,34.25730088754887
1440,34.2071588873891
1443,33.9574835678667
1446,33.66889734612305
1449,21.75448975505428
1452,20.2817511197407
1455,20.28164628071628
1458,20.28161133445161
1461,20.28161133445074
1464,20.28157638822449
1467,20.75331404492339
1470,20.75331404492339
1473,34.25730088754892
1587,0.0
1589,0.0
1591,1782480.935321533
1593,1081395.232900517
1603,0.0
1605,0.0
1611,0.0
1613,0.0
1618,0.0
1619,0.0
1620,0.0
1621,0.0
1627,0.0
1629,309355.4414373801
1631,142727.8923040887
1633,0.0
1643,0.0
1645,0.0
1651,149.8519069436575
1653,0.0
1658,0.2497531782394292
1659,149.8519069436575
1660,0.0
1661,0.0
1667,0.0
1669,0.0
1671,0.0
1673,0.0
1683,4371409.991859319
1685,0.0
1691,1676795.622354711
1693,0.0
1698,10080.34269035672
1699,6048205.61421403
1700,0.0
1701,0.0
1721,8774515.708352342
1747,0.0
1760,21.75447735376785
1770,0.0
1781,0.0
1789,-11.51790296279061
1799,0.0
1810,0.0
1818,-2.12498766131187
1839,0.0
1864,11581182.61851894
2,1, 1,21, 0, 1,20.00,30.00,WinterDesignDay
1369,0.0
1370,0.0
1374,0.0
1375,0.0
1379,0.0
1380,0.0
1384,0.0
1385,0.0
1408,21.7544897516938
1411,-11.51790296279061
1414,-2.12498766131187
1417,-17.29025000230098
1421,-17.29025000230098
1425,-17.29025000230098
1429,-17.29025000230098
1433,-17.29025000230098
1437,34.25730110687942
1440,34.20715910597814
1443,33.9574837827635
1446,33.6688975566967
1449,21.75448975169285
1452,20.28175093763051
1455,20.28164609859212
1458,20.28161115232279
1461,20.28161115232194
1464,20.28157620609101
1467,20.75331386278997
1470,20.75331386278997
1473,34.25730110687947
1587,0.0
1589,0.0
1591,1782480.941928936
1593,1081395.338095886
1603,0.0
1605,0.0
1611,0.0
1613,0.0
1618,0.0
1619,0.0
1620,0.0
1621,0.0
1627,0.0
1629,309355.5875415575
1631,142727.7769561663
1633,0.0
1643,0.0
1645,0.0
1651,149.8519269279575
1653,0.0
1658,0.2497532115465958
1659,149.8519269279575
1660,0.0
1661,0.0
1667,0.0
1669,0.0
1671,0.0
1673,0.0
1683,4371410.061632185
1685,0.0
1691,1676795.776448203
1693,0.0
1698,10080.34306346732
1699,6048205.838080388
1700,0.0
1701,0.0
1721,8774515.864179432
1747,0.0
1760,21.75447735045557
1770,0.0
1781,0.0
1789,-11.5179073210637
1799,0.0
1810,0.0
1818,-2.12498797552636
1839,0.0
1864,11581182.96281902
2,1, 1,21, 0, 1,30.00,40.00,WinterDesignDay
1369,0.0
1370,0.0
1374,0.0
1375,0.0
1379,0.0
1380,0.0
1384,0.0
1385,0.0
1408,21.7544897483816
1411,-11.5179073210637
1414,-2.12498797552636
1417,-17.29025000230098
1421,-17.29025000230098
1425,-17.29025000230098
1429,-17.29025000230098
1433,-17.29025000230098
1437,34.25730132311153
1440,34.2071593214792
1443,33.95748399462433
1446,33.66889776429534
1449,21.75448974838065
1452,20.2817507580854
1455,20.28164591903324
1458,20.28161097275932
1461,20.28161097275845
1464,20.28157602652294
1467,20.75331368322178
1470,20.75331368322178
1473,34.25730132311158
1587,0.0
1589,0.0
1591,1782480.94844301
1593,1081395.441810948
1603,0.0
1605,0.0
1611,0.0
1613,0.0
1618,0.0
1619,0.0
1620,0.0
1621,0.0
1627,0.0
1629,309355.731589372
1631,142727.6632316104
1633,0.0
1643,0.0
1645,0.0
1651,149.8519466106149
1653,0.0
1658,0.2497532443510249
1659,149.8519466106149
1660,0.0
1661,0.0
1667,0.0
1669,0.0
1671,0.0
1673,0.0
1683,4371410.130421703
1685,0.0
1691,1676795.928372728
1693,0.0
1698,10080.34343132405
1699,6048206.05879443
1700,0.0
1701,0.0
1721,8774516.017802035
1747,0.0
1760,21.75447734718781
1770,0.0
1781,0.0
1789,-11.51791161800414
1799,0.0
1810,0.0
1818,-2.124988285318838
1839,0.0
1864,11581183.30226258
2,1, 1,21, 0, 1,40.00,50.00,WinterDesignDay
1369,0.0
1370,0.0
1374,0.0
1375,0.0
1379,0.0
1380,0.0
1384,0.0
1385,0.0
1408,21.75448974511391
1411,-11.51791161800415
1414,-2.124988285318838
1417,-17.29025000230098
1421,-17.29025000230098
1425,-17.29025000230098
1429,-17.29025000230098
1433,-17.29025000230098
1437,34.25730153630823
1440,34.2071595339551
1443,33.95748420351119
1446,33.66889796897988
1449,21.75448974511296
1452,20.2817505810647
1455,20.28164574199895
1458,20.2816107957205
1461,20.28161079571963
1464,20.28157584947959
1467,20.75331350617839
1470,20.75331350617839
1473,34.25730153630827
1587,0.0
1589,0.0
1591,1782480.954865805
1593,1081395.544066645
1603,0.0
1605,0.0
1611,0.0
1613,0.0
1618,0.0
1619,0.0
1620,0.0
1621,0.0
1627,0.0
1629,309355.8736109676
1631,142727.5511070925
1633,0.0
1643,0.0
1645,0.0
1651,149.8519660312474
1653,0.0
1658,0.2497532767187457
1659,149.8519660312474
1660,0.0
1661,0.0
1667,0.0
1669,0.0
1671,0.0
1673,0.0
1683,4371410.198244254
1685,0.0
1691,1676796.078159575
1693,0.0
1698,10080.34379400638
1699,6048206.276403829
1700,0.0
1701,0.0
1721,8774516.169272542
1747,0.0
1760,21.75447734396864
1770,0.0
1781,0.0
1789,-11.51791585447127
1799,0.0
1810,0.0
1818,-2.12498859075058
1839,0.0
1864,11581183.63693685
2,1, 1,21, 0, 1,50.00,60.00,WinterDesignDay
1369,0.0
1370,0.0
1374,0.0
1375,0.0
1379,0.0
1380,0.0
1384,0.0
1385,0.0
1408,21.75448974189479
1411,-11.51791585447127
1414,-2.12498859075058
1417,-17.29025000230098
1421,-17.29025000230098
1425,-17.29025000230098
1429,-17.29025000230098
1433,-17.29025000230098
1437,34.25730174649843
1440,34.20715974343467
1443,33.95748440945227
1446,33.66889817077789
1449,21.75448974189386
1452,20.2817504065379
1455,20.28164556745876
1458,20.28161062117585
1461,20.28161062117498
1464,20.28157567493048
1467,20.75331333162916
1470,20.75331333162916
1473,34.25730174649847
1587,0.0
1589,0.0
1591,1782480.961197489
1593,1081395.644883313
1603,0.0
1605,0.0
1611,0.0
1613,0.0
1618,0.0
1619,0.0
1620,0.0
1621,0.0
1627,0.0
1629,309356.0136335496
1631,142727.4405606679
1633,0.0
1643,0.0
1645,0.0
1651,149.8519851654706
1653,0.0
1658,0.2497533086091176
1659,149.8519851654706
1660,0.0
1661,0.0
1667,0.0
1669,0.0
1671,0.0
1673,0.0
1683,4371410.265111011
1685,0.0
1691,1676796.225838168
1693,0.0
1698,10080.34415158196
1699,6048206.490949179
1700,0.0
1701,0.0
1721,8774516.318604337
1747,0.0
1760,21.75447734079453
1770,0.0
1781,0.0
1789,-11.51792003131605
1799,0.0
1810,0.0
1818,-2.124988891884227
1839,0.0
1864,11581183.96689403
2,1, 1,21, 0, 2, 0.00,10.00,WinterDesignDay
1369,0.0
1370,0.0
1374,0.0
1375,0.0
1379,0.0
1380,0.0
1384,0.0
1385,0.0
1408,21.75448973872076
1411,-11.51792003131605
1414,-2.124988891884227
1417,-17.29025000230098
1421,-17.29025000230098
1425,-17.29025000230098
1429,-17.29025000230098
1433,-17.29025000230098
1437,34.25730195372669
1440,34.20715994996232
1443,33.95748461249126
1446,33.66889836973211
1449,21.75448973871981
1452,20.28175023446775
1455,20.2816453953754
1458,20.28161044908808
1461,20.28161044908722
1464,20.28157550283833
1467,20.75331315953699
1470,20.75331315953699
1473,34.25730195372673
1587,0.0
1589,0.0
1591,1782480.967441431
1593,1081395.744280619
1603,0.0
1605,0.0
1611,0.0
1613,0.0
1618,0.0
1619,0.0
1620,0.0
1621,0.0
1627,0.0
1629,309356.1516851317
1631,142727.331570214
1633,0.0
1643,0.0
1645,0.0
1651,149.8520040498518
1653,0.0
1658,0.2497533400830864
1659,149.8520040498518
1660,0.0
1661,0.0
1667,0.0
1669,0.0
1671,0.0
1673,0.0
1683,4371410.33103655
1685,0.0
1691,1676796.37143788
1693,0.0
1698,10080.34450412405
1699,6048206.702474431
1700,0.0
1701,0.0
1721,8774516.465830307
1747,0.0
1760,21.75447733766101
1770,0.0
1781,0.0
1789,-11.51792414938017
1799,0.0
1810,0.0
1818,-2.124989188780803
1839,0.0
1864,11581184.29220432
2,1, 1,21, 0, 2,10.00,20.00,WinterDesignDay
1369,0.0
1370,0.0
1374,0.0
1375,0.0
1379,0.0
1380,0.0
1384,0.0
1385,0.0
1408,21.75448973558732
1411,-11.51792414938017
1414,-2.124989188780803
1417,-17.29025000230098
1421,-17.29025000230098
1425,-17.29025000230098
1429,-17.29025000230098
1433,-17.29025000230098
1437,34.25730215804694
1440,34.20716015359179
1443,33.95748481268112
1446,33.66889856589464
1449,21.75448973558637
1452,20.28175006481386
1455,20.28164522570849
1458,20.28161027941684
1461,20.28161027941598
1464,20.28157533316273
1467,20.75331298986136
1470,20.75331298986136
1473,34.25730215804698
1587,0.0
1589,0.0
1591,1782480.973596184
1593,1081395.842278959
1603,0.0
1605,0.0
1611,0.0
1613,0.0
1618,0.0
1619,0.0
1620,0.0
1621,0.0
1627,0.0
1629,309356.2877935695
1631,142727.2241138514
1633,0.0
1643,0.0
1645,0.0
1651,149.852022650877
1653,0.0
1658,0.2497533710847951
1659,149.852022650877
1660,0.0
1661,0.0
1667,0.0
1669,0.0
1671,0.0
1673,0.0
1683,4371410.396035172
1685,0.0
1691,1676796.514989637
1693,0.0
1698,10080.34485170802
1699,6048206.911024809
1700,0.0
1701,0.0
1721,8774516.610992229
1747,0.0
1760,21.7544773345741
1770,0.0
1781,0.0
1789,-11.51792820949433
1799,0.0
1810,0.0
1818,-2.124989481497678
1839,0.0
1864,11581184.61294778
2,1, 1,21, 0, 2,20.00,30.00,WinterDesignDay
1369,0.0
1370,0.0
1374,0.0
1375,0.0
1379,0.0
1380,0.0
1384,0.0
1385,0.0
1408,21.75448973250048
1411,-11.51792820949433
1414,-2.124989481497678
1417,-17.29025000230098
1421,-17.29025000230098
1425,-17.29025000230098
1429,-17.29025000230098
1433,-17.29025000230098
1437,34.25730235948092
1440,34.20716035434472
1443,33.95748501004289
1446,33.66889875928581
1449,21.75448973249953
1452,20.28174989755061
1455,20.2816450584324
1458,20.28161011213648
1461,20.28161011213561
1464,20.2815751658781
1467,20.75331282257663
1470,20.75331282257663
1473,34.25730235948096
1587,0.0
1589,0.0
1591,1782480.979665321
1593,1081395.938898366
1603,0.0
1605,0.0
1611,0.0
1613,0.0
1618,0.0
1619,0.0
1620,0.0
1621,0.0
1627,0.0
1629,309356.4219876871
1631,142727.1181690116
1633,0.0
1643,0.0
1645,0.0
1651,149.8520409898785
1653,0.0
1658,0.2497534016497975
1659,149.8520409898785
1660,0.0
1661,0.0
1667,0.0
1669,0.0
1671,0.0
1673,0.0
1683,4371410.460117668
1685,0.0
1691,1676796.656520623
1693,0.0
1698,10080.34519439715
1699,6048207.116638292
1700,0.0
1701,0.0
1721,8774516.75410692
1747,0.0
1760,21.75447733153151
1770,0.0
1781,0.0
1789,-11.51793221246849
1799,0.0
1810,0.0
1818,-2.124989770095233
1839,0.0
1864,11581184.929165
2,1, 1,21, 0, 2,30.00,40.00,WinterDesignDay
1369,0.0
1370,0.0
1374,0.0
1375,0.0
1379,0.0
1380,0.0
1384,0.0
1385,0.0
1408,21.75448972945796
1411,-11.51793221246849
1414,-2.124989770095233
1417,-17.29025000230098
1421,-17.29025000230098
1425,-17.29025000230098
1429,-17.29025000230098
1433,-17.29025000230098
1437,34.25730255808855
1440,34.20716055228089
1443,33.95748520463558
1446,33.66889894996375
1449,21.75448972945701
1452,20.2817497326424
1455,20.28164489351154
1458,20.2816099472114
1461,20.28160994721054
1464,20.2815750009488
1467,20.75331265764728
1470,20.75331265764728
1473,34.2573025580886
1587,0.0
1589,0.0
1591,1782480.985648525
1593,1081396.034158563
1603,0.0
1605,0.0
1611,0.0
1613,0.0
1618,0.0
1619,0.0
1620,0.0
1621,0.0
1627,0.0
1629,309356.5542930915
1631,142727.0137153401
1633,0.0
1643,0.0
1645,0.0
1651,149.8520590820763
1653,0.0
1658,0.2497534318034606
1659,149.8520590820763
1660,0.0
1661,0.0
1667,0.0
1669,0.0
1671,0.0
1673,0.0
1683,4371410.523299591
1685,0.0
1691,1676796.796059683
1693,0.0
1698,10080.34553226546
1699,6048207.319359274
1700,0.0
1701,0.0
1721,8774516.895209413
1747,0.0
1760,21.75447732853283
1770,0.0
1781,0.0
1789,-11.51793615910527
1799,0.0
1810,0.0
1818,-2.124990054630799
1839,0.0
1864,11581185.24093918
2,1, 1,21, 0, 2,40.00,50.00,WinterDesignDay
1369,0.0
1370,0.0
1374,0.0
1375,0.0
1379,0.0
1380,0.0
1384,0.0
1385,0.0
1408,21.75448972645936
1411,-11.51793615910527
1414,-2.124990054630799
1417,-17.29025000230098
1421,-17.29025000230098
1425,-17.29025000230098
1429,-17.29025000230098
1433,-17.29025000230098
1437,34.25730275388973
1440,34.20716074742008
1443,33.95748539647848
1446,33.66889913794707
1449,21.7544897264584
1452,20.28174957005537
1455,20.28164473091204
1458,20.28160978460775
1461,20.28160978460688
1464,20.28157483834099
1467,20.75331249503952
1470,20.75331249503952
1473,34.25730275388977
1587,0.0
1589,0.0
1591,1782480.991547855
1593,1081396.128077248
1603,0.0
1605,0.0
1611,0.0
1613,0.0
1618,0.0
1619,0.0
1620,0.0
1621,0.0
1627,0.0
1629,309356.6847357861
1631,142726.9107321617
1633,0.0
1643,0.0
1645,0.0
1651,149.8520769061577
1653,0.0
1658,0.2497534615102628
1659,149.8520769061577
1660,0.0
1661,0.0
1667,0.0
1669,0.0
1671,0.0
1673,0.0
1683,4371410.585590748
1685,0.0
1691,1676796.933635456
1693,0.0
1698,10080.34586537701
1699,6048207.519226204
1700,0.0
1701,0.0
1721,8774517.034318743
1747,0.0
1760,21.75447732557323
1770,0.0
1781,0.0
1789,-11.51794005020198
1799,0.0
1810,0.0
1818,-2.124990335162181
1839,0.0
1864,11581185.54831475
2,1, 1,21, 0, 2,50.00,60.00,WinterDesignDay
1369,0.0
1370,0.0
1374,0.0
1375,0.0
1379,0.0
1380,0.0
1384,0.0
1385,0.0
1408,21.75448972349981
1411,-11.51794005020198
1414,-2.124990335162181
1417,-17.29025000230098
1421,-17.29025000230098
1425,-17.29025000230098
1429,-17.29025000230098
1433,-17.29025000230098
1437,34.25730294694164
1440,34.2071609398193
1443,33.95748558562769
1446,33.66889932329098
1449,21.75448972349886
1452,20.28174940975403
1455,20.2816445705984
1458,20.28160962429
1461,20.28160962428913
1464,20.28157467801913
1467,20.75331233471759
1470,20.75331233471759
1473,34.25730294694169
1587,0.0
1589,0.0
1591,1782480.997362935
1593,1081396.220675147
1603,0.0
1605,0.0
1611,0.0
1613,0.0
1618,0.0
1619,0.0
1620,0.0
1621,0.0
1627,0.0
1629,309356.8133424938
1631,142726.8091983487
1633,0.0
1643,0.0
1645,0.0
1651,149.8520944986774
1653,0.0
1658,0.249753490831129
1659,149.8520944986774
1660,0.0
1661,0.0
1667,0.0
1669,0.0
1671,0.0
1673,0.0
1683,4371410.647005492
1685,0.0
1691,1676797.069274595
1693,0.0
1698,10080.34619380015
1699,6048207.716280087
1700,0.0
1701,0.0
1721,8774517.171477927
1747,0.0
1760,21.75447732265767
1770,0.0
1781,0.0
1789,-11.51794388654284
1799,0.0
1810,0.0
1818,-2.124990611745822
1839,0.0
1864,11581185.85137287
2,1, 1,21, 0, 3, 0.00,10.00,WinterDesignDay
1369,0.0
1370,0.0
1374,0.0
1375,0.0
1379,0.0
1380,0.0
1384,0.0
1385,0.0
1408,21.75448972058433
1411,-11.51794388654284
1414,-2.124990611745823
1417,-17.29025000230098
1421,-17.29025000230098
1425,-17.29025000230098
1429,-17.29025000230098
1433,-17.29025000230098
1437,34.25730313727575
1440,34.20716112950991
1443,33.95748577211407
1446,33.66889950602563
1449,21.75448972058338
1452,20.28174925171079
1455,20.28164441254303
1458,20.2816094662306
1461,20.28160946622972
1464,20.28157451995569
1467,20.75331217665408
1470,20.75331217665408
1473,34.2573031372758
1587,0.0
1589,0.0
1591,1782481.00309731
1593,1081396.311969802
1603,0.0
1605,0.0
1611,0.0
1613,0.0
1618,0.0
1619,0.0
1620,0.0
1621,0.0
1627,0.0
1629,309356.940140507
1631,142726.7090928025
1633,0.0
1643,0.0
1645,0.0
1651,149.8521118230699
1653,0.0
1658,0.2497535197051165
1659,149.8521118230699
1660,0.0
1661,0.0
1667,0.0
1669,0.0
1671,0.0
1673,0.0
1683,4371410.707556477
1685,0.0
1691,1676797.203004963
1693,0.0
1698,10080.3465176024
1699,6048207.910561441
1700,0.0
1701,0.0
1721,8774517.306701144
1747,0.0
1760,21.75447731978301
1770,0.0
1781,0.0
1789,-11.51794766889229
1799,0.0
1810,0.0
1818,-2.124990884436365
1839,0.0
1864,11581186.15016293
2,1, 1,21, 0, 3,10.00,20.00,WinterDesignDay
1369,0.0
1370,0.0
1374,0.0
1375,0.0
1379,0.0
1380,0.0
1384,0.0
1385,0.0
1408,21.75448971770973
1411,-11.51794766889229
1414,-2.124990884436365
1417,-17.29025000230098
1421,-17.29025000230098
1425,-17.29025000230098
1429,-17.29025000230098
1433,-17.29025000230098
1437,34.25730332492999
1440,34.20716131652969
1443,33.9574859559747
1446,33.66889968618732
1449,21.75448971770879
1452,20.28174909589137
1455,20.28164425671166
1458,20.28160931039524
1461,20.28160931039436
1464,20.28157436411634
1467,20.75331202081467
1470,20.75331202081467
1473,34.25730332493003
1587,0.0
1589,0.0
1591,1782481.008750446
1593,1081396.40197942
1603,0.0
1605,0.0
1611,0.0
1613,0.0
1618,0.0
1619,0.0
1620,0.0
1621,0.0
1627,0.0
1629,309357.0651533847
1631,142726.6103964617
1633,0.0
1643,0.0
1645,0.0
1651,149.8521289067685
1653,0.0
1658,0.2497535481779476
1659,149.8521289067685
1660,0.0
1661,0.0
1667,0.0
1669,0.0
1671,0.0
1673,0.0
1683,4371410.767254996
1685,0.0
1691,1676797.334853552
1693,0.0
1698,10080.34683684758
1699,6048208.102108548
1700,0.0
1701,0.0
1721,8774517.440021897
1747,0.0
1760,21.75447731694842
1770,0.0
1781,0.0
1789,-11.51795139801119
1799,0.0
1810,0.0
1818,-2.124991153288635
1839,0.0
1864,11581186.44474726
2,1, 1,21, 0, 3,20.00,30.00,WinterDesignDay
1369,0.0
1370,0.0
1374,0.0
1375,0.0
1379,0.0
1380,0.0
1384,0.0
1385,0.0
1408,21.75448971487521
1411,-11.51795139801119
1414,-2.124991153288635
1417,-17.29025000230098
1421,-17.29025000230098
1425,-17.29025000230098
1429,-17.29025000230098
1433,-17.29025000230098
1437,34.25730350994286
1440,34.20716150091704
1443,33.95748613724737
1446,33.66889986381315
1449,21.75448971487426
1452,20.28174894226474
1455,20.28164410307325
1458,20.28160915675289
1461,20.28160915675202
1464,20.28157421047006
1467,20.75331186716838
1470,20.75331186716838
1473,34.25730350994289
1587,0.0
1589,0.0
1591,1782481.014324239
1593,1081396.490722401
1603,0.0
1605,0.0
1611,0.0
1613,0.0
1618,0.0
1619,0.0
1620,0.0
1621,0.0
1627,0.0
1629,309357.1884076497
1631,142726.513088732
1633,0.0
1643,0.0
1645,0.0
1651,149.852145761947
1653,0.0
1658,0.2497535762699117
1659,149.852145761947
1660,0.0
1661,0.0
1667,0.0
1669,0.0
1671,0.0
1673,0.0
1683,4371410.826113031
1685,0.0
1691,1676797.464846327
1693,0.0
1698,10080.34715159893
1699,6048208.290959357
1700,0.0
1701,0.0
1721,8774517.571463216
1747,0.0
1760,21.75447731415272
1770,0.0
1781,0.0
1789,-11.51795507464672
1799,0.0
1810,0.0
1818,-2.124991418357375
1839,0.0
1864,11581186.7351851
2,1, 1,21, 0, 3,30.00,40.00,WinterDesignDay
1369,0.0
1370,0.0
1374,0.0
1375,0.0
1379,0.0
1380,0.0
1384,0.0
1385,0.0
1408,21.75448971207957
1411,-11.51795507464672
1414,-2.124991418357375
1417,-17.29025000230098
1421,-17.29025000230098
1425,-17.29025000230098
1429,-17.29025000230098
1433,-17.29025000230098
1437,34.25730369234348
1440,34.20716168270097
1443,33.95748631596053
1446,33.66890003893084
1449,21.75448971207863
1452,20.28174879079907
1455,20.28164395159596
1458,20.28160900527173
1461,20.28160900527086
1464,20.28157405898502
1467,20.75331171568319
1470,20.75331171568319
1473,34.25730369234353
1587,0.0
1589,0.0
1591,1782481.019819715
1593,1081396.578216058
1603,0.0
1605,0.0
1611,0.0
1613,0.0
1618,0.0
1619,0.0
1620,0.0
1621,0.0
1627,0.0
1629,309357.3099264235
1631,142726.417150938
1633,0.0
1643,0.0
1645,0.0
1651,149.8521623733763
1653,0.0
1658,0.2497536039556272
1659,149.8521623733763
1660,0.0
1661,0.0
1667,0.0
1669,0.0
1671,0.0
1673,0.0
1683,4371410.884141898
1685,0.0
1691,1676797.593009648
1693,0.0
1698,10080.34746191924
1699,6048208.477151546
1700,0.0
1701,0.0
1721,8774517.701058473
1747,0.0
1760,21.7544773113971
1770,0.0
1781,0.0
1789,-11.51795869954116
1799,0.0
1810,0.0
1818,-2.124991679696388
1839,0.0
1864,11581187.02153002
2,1, 1,21, 0, 3,40.00,50.00,WinterDesignDay
1369,0.0
1370,0.0
1374,0.0
1375,0.0
1379,0.0
1380,0.0
1384,0.0
1385,0.0
1408,21.75448970932401
1411,-11.51795869954117
1414,-2.124991679696388
1417,-17.29025000230098
1421,-17.29025000230098
1425,-17.29025000230098
1429,-17.29025000230098
1433,-17.29025000230098
1437,34.25730387218241
1440,34.20716186193187
1443,33.9574864921638
1446,33.66890021158917
1449,21.75448970932307
1452,20.2817486414658
1455,20.28164380225123
1458,20.28160885592318
1461,20.28160885592231
1464,20.28157390963267
1467,20.75331156633086
1470,20.75331156633086
1473,34.25730387218245
1587,0.0
1589,0.0
1591,1782481.02523781
1593,1081396.664478551
1603,0.0
1605,0.0
1611,0.0
1613,0.0
1618,0.0
1619,0.0
1620,0.0
1621,0.0
1627,0.0
1629,309357.4297350694
1631,142726.3225632465
1633,0.0
1643,0.0
1645,0.0
1651,149.8521787502045
1653,0.0
1658,0.2497536312503409
1659,149.8521787502045
1660,0.0
1661,0.0
1667,0.0
1669,0.0
1671,0.0
1673,0.0
1683,4371410.941354585
1685,0.0
1691,1676797.719369296
1693,0.0
1698,10080.34776787313
1699,6048208.660723881
1700,0.0
1701,0.0
1721,8774517.828825666
1747,0.0
1760,21.75447730867971
1770,0.0
1781,0.0
1789,-11.51796227342407
1799,0.0
1810,0.0
1818,-2.124991937357245
1839,0.0
1864,11581187.30384811
2,1, 1,21, 0, 3,50.00,60.00,WinterDesignDay
1369,0.0
1370,0.0
1374,0.0
1375,0.0
1379,0.0
1380,0.0
1384,0.0
1385,0.0
1408,21.75448970660669
1411,-11.51796227342407
1414,-2.124991937357245
1417,-17.29025000230098
1421,-17.29025000230098
1425,-17.29025000230098
1429,-17.29025000230098
1433,-17.29025000230098
1437,34.25730404949114
1440,34.20716203864112
1443,33.95748666588806
1446,33.66890038181835
1449,21.75448970660574
1452,20.28174849423397
1455,20.2816436550081
1458,20.28160870867628
1461,20.28160870867541
1464,20.281573762382
1467,20.75331141908016
1470,20.75331141908016
1473,34.25730404949118
1587,0.0
1589,0.0
1591,1782481.030579892
1593,1081396.749527484
1603,0.0
1605,0.0
1611,0.0
1613,0.0
1618,0.0
1619,0.0
1620,0.0
1621,0.0
1627,0.0
1629,309357.5478585606
1631,142726.2293062268
1633,0.0
1643,0.0
1645,0.0
1651,149.85219489852
1653,0.0
1658,0.2497536581642
1659,149.85219489852
1660,0.0
1661,0.0
1667,0.0
1669,0.0
1671,0.0
1673,0.0
1683,4371410.997762361
1685,0.0
1691,1676797.843950375
1693,0.0
1698,10080.34806952123
1699,6048208.841712735
1700,0.0
1701,0.0
1721,8774517.954797162
1747,0.0
1760,21.75447730600161
1770,0.0
1781,0.0
1789,-11.51796579700877
1799,0.0
1810,0.0
1818,-2.124992191391432
1839,0.0
1864,11581187.58219467
2,1, 1,21, 0, 4, 0.00,10.00,WinterDesignDay
1369,0.0
1370,0.0
1374,0.0
1375,0.0
1379,0.0
1380,0.0
1384,0.0
1385,0.0
1408,21.75448970392863
1411,-11.51796579700877
1414,-2.124992191391432
1417,-17.29025000230098
1421,-17.29025000230098
1425,-17.29025000230098
1429,-17.29025000230098
1433,-17.29025000230098
1437,34.25730422430203
1440,34.20716221286099
1443,33.95748683716496
1446,33.66890054964945
1449,21.75448970392769
1452,20.28174834907454
1455,20.28164350983753
1458,20.28160856350199
1461,20.28160856350113
1464,20.281573617204
1467,20.75331127390206
1470,20.75331127390206
1473,34.25730422430208
1587,0.0
1589,0.0
1591,1782481.035846907
1593,1081396.833378564
1603,0.0
1605,0.0
1611,0.0
1613,0.0
1618,0.0
1619,0.0
1620,0.0
1621,0.0