Program Version,EnergyPlus vSmall 1.2.2.012, 30.11.2005 19:12
1,5,Environment Title[],Latitude[degrees],Longitude[degrees],Time Zone[],Elevation[m]
2,6,Day of Simulation[],Month[],Day of Month[],DST Indicator[1=yes 0=no],Hour[],StartMinute[],EndMinute[],DayType
3,3,Cumulative Day of Simulation[],Month[],Day of Month[],DST Indicator[1=yes 0=no],DayType  ! When Daily Report Variables Requested
4,2,Cumulative Days of Simulation[],Month[]  ! When Monthly Report Variables Requested
5,1,Cumulative Days of Simulation[] ! When Run Period Report Variables Requested
6,2,Environment,Outdoor Dry Bulb [C] !Hourly
37,2,G.29,Zone Transmitted Solar[W] !TimeStep
42,2,G.29,Zone Window Heat Gain[W] !TimeStep
44,2,G.30,Zone Transmitted Solar[W] !TimeStep
49,2,G.30,Zone Window Heat Gain[W] !TimeStep
51,2,G.60,Zone Transmitted Solar[W] !TimeStep
56,2,G.60,Zone Window Heat Gain[W] !TimeStep
119,2,G.29.WINDOW.1,Window Transmitted Solar[W] !TimeStep
120,2,G.29.WINDOW.1,Window Transmitted Beam Solar[W] !TimeStep
121,2,G.29.WINDOW.1,Window Transmitted Diffuse Solar[W] !TimeStep
126,2,G.29.WINDOW.1,Window System Solar Transmittance[] !TimeStep
127,2,G.29.WINDOW.1,Window System Solar Reflectance[] !TimeStep
128,2,G.29.WINDOW.1,Window System Solar Absorptance[] !TimeStep
141,2,G.29.WINDOW.1,Glass Beam-Beam Solar Transmittance[] !TimeStep
142,2,G.29.WINDOW.1,Glass Beam-Diffuse Solar Transmittance[] !TimeStep
143,2,G.29.WINDOW.1,Glass Diffuse-Diffuse Solar Transmittance[] !TimeStep
218,2,G.30.WINDOW.1,Window Transmitted Solar[W] !TimeStep
219,2,G.30.WINDOW.1,Window Transmitted Beam Solar[W] !TimeStep
220,2,G.30.WINDOW.1,Window Transmitted Diffuse Solar[W] !TimeStep
225,2,G.30.WINDOW.1,Window System Solar Transmittance[] !TimeStep
226,2,G.30.WINDOW.1,Window System Solar Reflectance[] !TimeStep
227,2,G.30.WINDOW.1,Window System Solar Absorptance[] !TimeStep
240,2,G.30.WINDOW.1,Glass Beam-Beam Solar Transmittance[] !TimeStep
241,2,G.30.WINDOW.1,Glass Beam-Diffuse Solar Transmittance[] !TimeStep
242,2,G.30.WINDOW.1,Glass Diffuse-Diffuse Solar Transmittance[] !TimeStep
317,2,G.60.WINDOW.1,Window Transmitted Solar[W] !TimeStep
318,2,G.60.WINDOW.1,Window Transmitted Beam Solar[W] !TimeStep
319,2,G.60.WINDOW.1,Window Transmitted Diffuse Solar[W] !TimeStep
324,2,G.60.WINDOW.1,Window System Solar Transmittance[] !TimeStep
325,2,G.60.WINDOW.1,Window System Solar Reflectance[] !TimeStep
326,2,G.60.WINDOW.1,Window System Solar Absorptance[] !TimeStep
339,2,G.60.WINDOW.1,Glass Beam-Beam Solar Transmittance[] !TimeStep
340,2,G.60.WINDOW.1,Glass Beam-Diffuse Solar Transmittance[] !TimeStep
341,2,G.60.WINDOW.1,Glass Diffuse-Diffuse Solar Transmittance[] !TimeStep
523,2,G.29.EXTERIORWALL.1,Surface Inside Temperature[C] !TimeStep
524,2,G.29.EXTERIORWALL.1,Surface Outside Temperature[C] !TimeStep
531,2,G.29.EXTERIORWALL.2,Surface Inside Temperature[C] !TimeStep
532,2,G.29.EXTERIORWALL.2,Surface Outside Temperature[C] !TimeStep
539,2,G.29.EXTERIORWALL.3,Surface Inside Temperature[C] !TimeStep
540,2,G.29.EXTERIORWALL.3,Surface Outside Temperature[C] !TimeStep
547,2,G.29.EXTERIORWALL.4,Surface Inside Temperature[C] !TimeStep
548,2,G.29.EXTERIORWALL.4,Surface Outside Temperature[C] !TimeStep
555,2,G.29.WINDOW.1,Surface Inside Temperature[C] !TimeStep
556,2,G.29.WINDOW.1,Surface Outside Temperature[C] !TimeStep
565,2,G.29.GROUNDFLOOR.6,Surface Inside Temperature[C] !TimeStep
566,2,G.29.GROUNDFLOOR.6,Surface Outside Temperature[C] !TimeStep
573,2,G.29.ROOF.5,Surface Inside Temperature[C] !TimeStep
574,2,G.29.ROOF.5,Surface Outside Temperature[C] !TimeStep
581,2,G.30.EXTERIORWALL.1,Surface Inside Temperature[C] !TimeStep
582,2,G.30.EXTERIORWALL.1,Surface Outside Temperature[C] !TimeStep
589,2,G.30.EXTERIORWALL.2,Surface Inside Temperature[C] !TimeStep
590,2,G.30.EXTERIORWALL.2,Surface Outside Temperature[C] !TimeStep
597,2,G.30.EXTERIORWALL.3,Surface Inside Temperature[C] !TimeStep
598,2,G.30.EXTERIORWALL.3,Surface Outside Temperature[C] !TimeStep
605,2,G.30.EXTERIORWALL.4,Surface Inside Temperature[C] !TimeStep
606,2,G.30.EXTERIORWALL.4,Surface Outside Temperature[C] !TimeStep
613,2,G.30.WINDOW.1,Surface Inside Temperature[C] !TimeStep
614,2,G.30.WINDOW.1,Surface Outside Temperature[C] !TimeStep
623,2,G.30.GROUNDFLOOR.6,Surface Inside Temperature[C] !TimeStep
624,2,G.30.GROUNDFLOOR.6,Surface Outside Temperature[C] !TimeStep
631,2,G.30.ROOF.5,Surface Inside Temperature[C] !TimeStep
632,2,G.30.ROOF.5,Surface Outside Temperature[C] !TimeStep
639,2,G.60.EXTERIORWALL.1,Surface Inside Temperature[C] !TimeStep
640,2,G.60.EXTERIORWALL.1,Surface Outside Temperature[C] !TimeStep
647,2,G.60.EXTERIORWALL.2,Surface Inside Temperature[C] !TimeStep
648,2,G.60.EXTERIORWALL.2,Surface Outside Temperature[C] !TimeStep
655,2,G.60.EXTERIORWALL.3,Surface Inside Temperature[C] !TimeStep
656,2,G.60.EXTERIORWALL.3,Surface Outside Temperature[C] !TimeStep
663,2,G.60.EXTERIORWALL.4,Surface Inside Temperature[C] !TimeStep
664,2,G.60.EXTERIORWALL.4,Surface Outside Temperature[C] !TimeStep
671,2,G.60.WINDOW.1,Surface Inside Temperature[C] !TimeStep
672,2,G.60.WINDOW.1,Surface Outside Temperature[C] !TimeStep
681,2,G.60.GROUNDFLOOR.6,Surface Inside Temperature[C] !TimeStep
682,2,G.60.GROUNDFLOOR.6,Surface Outside Temperature[C] !TimeStep
689,2,G.60.ROOF.5,Surface Inside Temperature[C] !TimeStep
690,2,G.60.ROOF.5,Surface Outside Temperature[C] !TimeStep
837,2,G.29,Mean Air Temperature[C] !Hourly
838,2,G.30,Mean Air Temperature[C] !Hourly
839,2,G.60,Mean Air Temperature[C] !Hourly
End of Data Dictionary
1,1000_WIEN TMY2-999 WMO#=,  48.32,  16.57,   1.00, 170.00
2,1, 1, 1, 0, 1, 0.00,60.00,Monday         
37,0.000000000000000E+000
42,0.000000000000000E+000
44,0.000000000000000E+000
49,0.000000000000000E+000
51,0.000000000000000E+000
56,0.000000000000000E+000
119,0.000000000000000E+000
120,0.000000000000000E+000
121,0.000000000000000E+000
126,0.000000000000000E+000
127,0.000000000000000E+000
128,0.000000000000000E+000
141,0.000000000000000E+000
142,0.000000000000000E+000
143,0.000000000000000E+000
218,0.000000000000000E+000
219,0.000000000000000E+000
220,0.000000000000000E+000
225,0.000000000000000E+000
226,0.000000000000000E+000
227,0.000000000000000E+000
240,0.000000000000000E+000
241,0.000000000000000E+000
242,0.000000000000000E+000
317,0.000000000000000E+000
318,0.000000000000000E+000
319,0.000000000000000E+000
324,0.000000000000000E+000
325,0.000000000000000E+000
326,0.000000000000000E+000
339,0.000000000000000E+000
340,0.000000000000000E+000
341,0.000000000000000E+000
523,3.07839580343727
524,-7.34315473540626
531,3.05511374452912
532,-7.77961483636932
539,3.05511374452913
540,-7.77961483636932
547,3.07504101974563
548,-7.34325181748564
555,0.130855762675822
556,-6.00667298586700
565,4.70087099381859
566,18.0000000000000
573,3.95531743044450
574,-12.6606687569528
581,2.98594037302029
582,-7.34802611676714
589,2.96280209427036
590,-7.78547044006446
597,2.96280209427034
598,-7.78547044006445
605,3.00195560975308
606,-7.34714605128069
613,1.87351443402696
614,-5.87003641910724
623,4.61633289764101
624,18.0000000000000
631,3.85162553056900
632,-12.6621120545601
639,3.03917736021777
640,-7.34517527213503
647,3.01608431860267
648,-7.78203960754944
655,3.01608431860265
656,-7.78203960754947
663,3.05760381100485
664,-7.34411969611817
671,1.81233968284516
672,-5.78677539427787
681,4.67191815157605
682,18.0000000000000
689,3.90881311357835
690,-12.6613295276352
2,1, 1, 1, 0, 1, 0.00,60.00,Monday         
6,-5.00000000000000
837,3.46357989638028
838,3.43989490184980
839,3.49128578171671
2,1, 1, 1, 0, 2, 0.00,60.00,Monday         
37,0.000000000000000E+000
42,0.000000000000000E+000
44,0.000000000000000E+000
49,0.000000000000000E+000
51,0.000000000000000E+000
56,0.000000000000000E+000
119,0.000000000000000E+000
120,0.000000000000000E+000
121,0.000000000000000E+000
126,0.000000000000000E+000
127,0.000000000000000E+000
128,0.000000000000000E+000
141,0.000000000000000E+000
142,0.000000000000000E+000
143,0.000000000000000E+000
218,0.000000000000000E+000
219,0.000000000000000E+000
220,0.000000000000000E+000
225,0.000000000000000E+000
226,0.000000000000000E+000
227,0.000000000000000E+000
240,0.000000000000000E+000
241,0.000000000000000E+000
242,0.000000000000000E+000
317,0.000000000000000E+000
318,0.000000000000000E+000
319,0.000000000000000E+000
324,0.000000000000000E+000
325,0.000000000000000E+000
326,0.000000000000000E+000
339,0.000000000000000E+000
340,0.000000000000000E+000
341,0.000000000000000E+000
523,3.05415750032454
524,-6.92972546734280
531,3.03092199768261
532,-7.26879434493211
539,3.03092199768261
540,-7.26879434493212
547,3.05084522881240
548,-6.92983153468447
555,-0.387410751028824
556,-6.61900456550200
565,4.65945668361528
566,18.0000000000000
573,3.93215464230647
574,-12.2851201784732
581,2.96016659626356
582,-6.93486109944354
589,2.93703883447282
590,-7.27489757990358
597,2.93703883447280
598,-7.27489757990357
605,2.97614134602085
606,-6.93393339632251
613,1.67569419064739
614,-6.39411259110284
623,4.57468000407792
624,18.0000000000000
631,3.82776135829158
632,-12.2865770029439
639,3.01302928129884
640,-6.93185551293647
647,2.98994678932473
648,-7.27132135009770
655,2.98994678932471
656,-7.27132135009773
663,3.03139653813720
664,-6.93074405789765
671,1.61017408246249
672,-6.29937080339340
681,4.62903338778009
682,18.0000000000000
689,3.88459849205681
690,-12.2857839102820
2,1, 1, 1, 0, 2, 0.00,60.00,Monday         
6,-5.40000000000000
837,3.44970194847823
838,3.41930103800057
839,3.47017557991407
2,1, 1, 1, 0, 3, 0.00,60.00,Monday         
37,0.000000000000000E+000
42,0.000000000000000E+000
44,0.000000000000000E+000
49,0.000000000000000E+000
51,0.000000000000000E+000
56,0.000000000000000E+000
119,0.000000000000000E+000
120,0.000000000000000E+000
121,0.000000000000000E+000
126,0.000000000000000E+000
127,0.000000000000000E+000
128,0.000000000000000E+000
141,0.000000000000000E+000
142,0.000000000000000E+000
143,0.000000000000000E+000
218,0.000000000000000E+000
219,0.000000000000000E+000
220,0.000000000000000E+000
225,0.000000000000000E+000
226,0.000000000000000E+000
227,0.000000000000000E+000
240,0.000000000000000E+000
241,0.000000000000000E+000
242,0.000000000000000E+000
317,0.000000000000000E+000
318,0.000000000000000E+000
319,0.000000000000000E+000
324,0.000000000000000E+000
325,0.000000000000000E+000
326,0.000000000000000E+000
339,0.000000000000000E+000
340,0.000000000000000E+000
341,0.000000000000000E+000
523,3.02911251506275
524,-7.18023554325557
531,3.00589521095871
532,-7.46671682372172
539,3.00589521095871
540,-7.46671682372173
547,3.02580279325566
548,-7.18034936452872
555,-0.439658960095414
556,-6.93758250392807
565,4.62097825492887
566,18.0000000000000
573,3.90884325489584
574,-12.1204666694427
581,2.93433897613800
582,-7.18558633280805
589,2.91121759243029
590,-7.47303203288098
597,2.91121759243027
598,-7.47303203288098
605,2.95031856684980
606,-7.18461879776957
613,1.59921231447174
614,-6.72225588249671
623,4.53578827335824
624,18.0000000000000
631,3.80416189312554
632,-12.1219440708735
639,2.98684966016597
640,-7.18245656033218
647,2.96377347239378
648,-7.46933347214136
655,2.96377347239377
656,-7.46933347214139
663,3.00520732243219
664,-7.18129912155977
671,1.53007546757510
672,-6.62151971614821
681,4.58903544387859
682,18.0000000000000
689,3.86066924833030
690,-12.1211366068830
2,1, 1, 1, 0, 3, 0.00,60.00,Monday         
6,-5.80000000000000
837,3.40649023006892
838,3.38404569535869
839,3.43419423997992
2,1, 1, 1, 0, 4, 0.00,60.00,Monday         
37,0.000000000000000E+000
42,0.000000000000000E+000
44,0.000000000000000E+000
49,0.000000000000000E+000
51,0.000000000000000E+000
56,0.000000000000000E+000
119,0.000000000000000E+000
120,0.000000000000000E+000
121,0.000000000000000E+000
126,0.000000000000000E+000
127,0.000000000000000E+000
128,0.000000000000000E+000
141,0.000000000000000E+000
142,0.000000000000000E+000
143,0.000000000000000E+000
218,0.000000000000000E+000
219,0.000000000000000E+000
220,0.000000000000000E+000
225,0.000000000000000E+000
226,0.000000000000000E+000
227,0.000000000000000E+000
240,0.000000000000000E+000
241,0.000000000000000E+000
242,0.000000000000000E+000
317,0.000000000000000E+000
318,0.000000000000000E+000
319,0.000000000000000E+000
324,0.000000000000000E+000
325,0.000000000000000E+000
326,0.000000000000000E+000
339,0.000000000000000E+000
340,0.000000000000000E+000
341,0.000000000000000E+000
523,3.00305384947829
524,-7.65139455110855
531,2.97980858662567
532,-7.92108869893230
539,2.97980858662568
540,-7.92108869893232
547,2.99976361193431
548,-7.65151067241192
555,-0.656454392136425
556,-7.45398382052110
565,4.58356218255131
566,18.0000000000000
573,3.88503939680204
574,-12.0143622886709
581,2.90831062771242
582,-7.65671260029341
589,2.88516924155225
590,-7.92742903569777
597,2.88516924155225
598,-7.92742903569776
605,2.92457431761159
606,-7.65574999748879
613,1.46986454380942
614,-7.22075940969819
623,4.49840722323230
624,18.0000000000000
631,3.78034325215299
632,-12.0158380354954
639,2.96046486044631
640,-7.65360459190748
647,2.93736833693289
648,-7.92371874002092
655,2.93736833693288
656,-7.92371874002095
663,2.97910291073797
664,-7.65245493498210
671,1.39553758490973
672,-7.11848132015700
681,4.55063878969667
682,18.0000000000000
689,3.83652578955475
690,-12.0150285317284
2,1, 1, 1, 0, 4, 0.00,60.00,Monday         
6,-6.40000000000000
837,3.36828565282273
838,3.35056584966174
839,3.39996981576824
2,1, 1, 1, 0, 5, 0.00,60.00,Monday         
37,0.000000000000000E+000
42,0.000000000000000E+000
44,0.000000000000000E+000
49,0.000000000000000E+000
51,0.000000000000000E+000
56,0.000000000000000E+000
119,0.000000000000000E+000
120,0.000000000000000E+000
121,0.000000000000000E+000
126,0.000000000000000E+000
127,0.000000000000000E+000
128,0.000000000000000E+000
141,0.000000000000000E+000
142,0.000000000000000E+000
143,0.000000000000000E+000
218,0.000000000000000E+000
219,0.000000000000000E+000
220,0.000000000000000E+000
225,0.000000000000000E+000
226,0.000000000000000E+000
227,0.000000000000000E+000
240,0.000000000000000E+000
241,0.000000000000000E+000
242,0.000000000000000E+000
317,0.000000000000000E+000
318,0.000000000000000E+000
319,0.000000000000000E+000
324,0.000000000000000E+000
325,0.000000000000000E+000
326,0.000000000000000E+000
339,0.000000000000000E+000
340,0.000000000000000E+000
341,0.000000000000000E+000
523,2.97847424948647
524,-7.97015095585166
531,2.95519036483563
532,-8.23423554015401
539,2.95519036483564
540,-8.23423554015404
547,2.97519004555790
548,-7.97027098072216
555,-0.747408234334102
556,-7.70496115223182
565,4.54783835201324
566,18.0000000000000
573,3.86161134142561
574,-11.9793167978498
581,2.88388130982685
582,-7.97551810849176
589,2.86070906933801
590,-8.24061823678862
597,2.86070906933799
598,-8.24061823678862
605,2.90030535988021
606,-7.97454622624300
613,1.40014088552533
614,-7.45539935671593
623,4.46286635082843
624,18.0000000000000
631,3.75697203120731
632,-11.9808035266040
639,2.93570767473232
640,-7.97238464408977
647,2.91257983851152
648,-8.23688686801916
655,2.91257983851151
656,-8.23688686801919
663,2.95448974963544
664,-7.97122573433534
671,1.32531782040928
672,-7.34964364891982
681,4.51417389257680
682,18.0000000000000
689,3.81285376535039
690,-11.9799853148965
2,1, 1, 1, 0, 5, 0.00,60.00,Monday         
6,-6.70000000000000
837,3.33892242856961
838,3.32212992971369
839,3.37096424897598
2,1, 1, 1, 0, 6, 0.00,60.00,Monday         
37,0.000000000000000E+000
42,0.000000000000000E+000
44,0.000000000000000E+000
49,0.000000000000000E+000
51,0.000000000000000E+000
56,0.000000000000000E+000
119,0.000000000000000E+000
120,0.000000000000000E+000
121,0.000000000000000E+000
126,0.000000000000000E+000
127,0.000000000000000E+000
128,0.000000000000000E+000
141,0.000000000000000E+000
142,0.000000000000000E+000
143,0.000000000000000E+000
218,0.000000000000000E+000
219,0.000000000000000E+000
220,0.000000000000000E+000
225,0.000000000000000E+000
226,0.000000000000000E+000
227,0.000000000000000E+000
240,0.000000000000000E+000
241,0.000000000000000E+000
242,0.000000000000000E+000
317,0.000000000000000E+000
318,0.000000000000000E+000
319,0.000000000000000E+000
324,0.000000000000000E+000
325,0.000000000000000E+000
326,0.000000000000000E+000
339,0.000000000000000E+000
340,0.000000000000000E+000
341,0.000000000000000E+000
523,2.95588510723284
524,-7.86601216534608
531,2.93257118050041
532,-8.15429236065320
539,2.93257118050042
540,-8.15429236065323
547,2.95258490912472
548,-7.86613181449946
555,-0.682841720304964
556,-7.51987785030326
565,4.51420413288327
566,18.0000000000000
573,3.83879403182385
574,-11.8122971588714
581,2.86160954015937
582,-7.87124581668052
589,2.83841089611448
590,-8.16055897501648
597,2.83841089611447
598,-8.16055897501648
605,2.87787732789188
606,-7.87029838570521
613,1.42280627257833
614,-7.29914160698615
623,4.42952091222879
624,18.0000000000000
631,3.73435507324063
632,-11.8137758493953
639,2.91313030156691
640,-7.86819402807341
647,2.88997570443556
648,-8.15689981747400
655,2.88997570443555
656,-8.15689981747403
663,2.93174278322175
664,-7.86706597418451
671,1.34650530144017
672,-7.19503017123975
681,4.47999044349145
682,18.0000000000000
689,3.78995210125432
690,-11.8129597274777
2,1, 1, 1, 0, 6, 0.00,60.00,Monday         
6,-6.50000000000000
837,3.31581699477663
838,3.29778765605579
839,3.34618500155081
2,1, 1, 1, 0, 7, 0.00,60.00,Monday         
37,0.000000000000000E+000
42,0.000000000000000E+000
44,0.000000000000000E+000
49,0.000000000000000E+000
51,0.000000000000000E+000
56,0.000000000000000E+000
119,0.000000000000000E+000
120,0.000000000000000E+000
121,0.000000000000000E+000
126,0.000000000000000E+000
127,0.000000000000000E+000
128,0.000000000000000E+000
141,0.000000000000000E+000
142,0.000000000000000E+000
143,0.000000000000000E+000
218,0.000000000000000E+000
219,0.000000000000000E+000
220,0.000000000000000E+000
225,0.000000000000000E+000
226,0.000000000000000E+000
227,0.000000000000000E+000
240,0.000000000000000E+000
241,0.000000000000000E+000
242,0.000000000000000E+000
317,0.000000000000000E+000
318,0.000000000000000E+000
319,0.000000000000000E+000
324,0.000000000000000E+000
325,0.000000000000000E+000
326,0.000000000000000E+000
339,0.000000000000000E+000
340,0.000000000000000E+000
341,0.000000000000000E+000
523,2.93486518597914
524,-8.46433357455589
531,2.91153704174533
532,-8.71572227742435
539,2.91153704174534
540,-8.71572227742438
547,2.93160558932902
548,-8.46445911719166
555,-1.00820780976039
556,-8.27742979544360
565,4.48269009481465
566,18.0000000000000
573,3.81651522777996
574,-11.9447911573298
581,2.83987148917950
582,-8.46970858591874
589,2.81665970879591
590,-8.72213437094752
597,2.81665970879590
598,-8.72213437094753
605,2.85671800187776
606,-8.46873638643380
613,1.22870603111033
614,-8.04525002138189
623,4.39773325609464
624,18.0000000000000
631,3.71164064252279
632,-11.9462859642986
639,2.89117248328775
640,-8.46657904053604
647,2.86800445891497
648,-8.71839570858032
655,2.86800445891496
656,-8.71839570858035
663,2.91030211508248
664,-8.46542322185454
671,1.16444665912547
672,-7.87371528234792
681,4.44748103193596
682,18.0000000000000
689,3.76701025285704
690,-11.9454589326478
2,1, 1, 1, 0, 7, 0.00,60.00,Monday         
6,-7.30000000000000
837,3.28503032722531
838,3.27049082446121
839,3.31870306299892
2,1, 1, 1, 0, 8, 0.00,60.00,Monday         
37,0.000000000000000E+000
42,0.000000000000000E+000
44,0.000000000000000E+000
49,0.000000000000000E+000
51,0.000000000000000E+000
56,0.000000000000000E+000
119,0.000000000000000E+000
120,0.000000000000000E+000
121,0.000000000000000E+000
126,0.000000000000000E+000
127,1.00000000000000
128,0.000000000000000E+000
141,0.000000000000000E+000
142,0.000000000000000E+000
143,0.000000000000000E+000
218,0.000000000000000E+000
219,0.000000000000000E+000
220,0.000000000000000E+000
225,0.000000000000000E+000
226,1.00000000000000
227,0.000000000000000E+000
240,0.000000000000000E+000
241,0.000000000000000E+000
242,0.000000000000000E+000
317,0.000000000000000E+000
318,0.000000000000000E+000
319,0.000000000000000E+000
324,0.000000000000000E+000
325,1.00000000000000
326,0.000000000000000E+000
339,0.000000000000000E+000
340,0.000000000000000E+000
341,0.000000000000000E+000
523,2.96144797920468
524,-8.84237931861877
531,2.93806439716736
532,-9.10397667444095
539,2.93806439716736
540,-9.10397667444098
547,2.95817095205647
548,-8.84250359818428
555,-0.694081202961058
556,-8.48488345869129
565,4.47857132063131
566,18.0000000000000
573,3.82463180129997
574,-12.0007721072738
581,2.86597348071983
582,-8.84759854000478
589,2.84271934248238
590,-9.11029018659639
597,2.84271934248236
598,-9.11029018659639
605,2.88273679107701
606,-8.84665559753673
613,1.31177321286680
614,-8.17710581203238
623,4.39345505995228
624,18.0000000000000
631,3.71954989267440
632,-12.0022490089115
639,2.91640345877088
640,-8.84456470480437
647,2.89319342610608
648,-9.10661494561447
655,2.89319342610607
656,-9.10661494561449
663,2.93573245891047
664,-8.84344518475852
671,1.16233794640698
672,-8.12948698281059
681,4.44220059400161
682,18.0000000000000
689,3.77426742809700
690,-12.0014302499745
2,1, 1, 1, 0, 8, 0.00,60.00,Monday         
6,-7.70000000000000
837,4.02050991915860
838,3.99443995226165
839,4.04096943956161
2,1, 1, 1, 0, 9, 0.00,60.00,Monday         
37,0.130984390924040
42,0.000000000000000E+000
44,0.516645647934112
49,0.000000000000000E+000
51,1.28509031904810
56,0.000000000000000E+000
119,0.130984390924040
120,0.000000000000000E+000
121,0.130984390924040
126,5.005786467883603E-002
127,0.432422530435166
128,0.517519604885998
141,5.638973179423828E-002
142,0.000000000000000E+000
143,5.005977779654808E-002
218,0.516645647934112
219,0.000000000000000E+000
220,0.516645647934112
225,0.197444731763446
226,0.166876058250766
227,0.635679209985789
240,0.220568375523457
241,0.000000000000000E+000
242,0.197452277730816
317,1.28509031904810
318,0.000000000000000E+000
319,1.28509031904810
324,0.491118650376423
325,0.300254941564967
326,0.208626408058609
339,0.549083621943009
340,0.000000000000000E+000
341,0.491137420010221
523,3.06944874312507
524,-9.30435577904371
531,3.04686801598689
532,-9.55273876629331
539,3.04686801598689
540,-9.55273876629335
547,3.06626820374880
548,-9.30448440431473
555,8.158753025986698E-002
556,-8.73260875107644
565,4.53646067296082
566,18.0000000000000
573,3.86241325715527
574,-12.1900132408805
581,2.97562278110843
582,-9.30965872232753
589,2.95310192970643
590,-9.55912579004048
597,2.95310192970641
598,-9.55912579004048
605,2.99116987950896
606,-9.30870186219156
613,1.62006767639571
614,-8.43030681860517
623,4.44899268592323
624,18.0000000000000
631,3.75928440259386
632,-12.1914996474497
639,3.02567859099140
640,-9.30658196799927
647,3.00320103704199
648,-9.55541454419008
655,3.00320103704200
656,-9.55541454419012
663,3.04377303315666
664,-9.30544748477355
671,1.46313202966587
672,-8.43501398041872
681,4.49701831519470
682,18.0000000000000
689,3.81354684827609
690,-12.1906743091060
2,1, 1, 1, 0, 9, 0.00,60.00,Monday         
6,-8.20000000000000
837,4.29817633677172
838,4.25201688738724
839,4.29807256937588
2,1, 1, 1, 0,10, 0.00,60.00,Monday         
37,2.27924938387416
42,0.000000000000000E+000
44,8.99011146616686
49,0.000000000000000E+000
51,22.3617585061081
56,0.000000000000000E+000
119,2.27924938387416
120,0.000000000000000E+000
121,2.27924938387416
126,5.005966784913000E-002
127,0.432402085319514
128,0.517538246831356
141,5.881805678889573E-002
142,0.000000000000000E+000
143,5.005977779654808E-002
218,8.99011146616686
219,0.000000000000000E+000
220,8.99011146616686
225,0.197451844061929
226,0.166846047694930
227,0.635702108243141
240,0.227207414030607
241,0.000000000000000E+000
242,0.197452277730816
317,22.3617585061081
318,0.000000000000000E+000
319,22.3617585061081
324,0.491136341314038
325,0.300229735545677
326,0.208633923140285
339,0.566786099470142
340,0.000000000000000E+000
341,0.491137420010221
523,3.08062026981751
524,-8.82742570024425
531,3.05812513681752
532,-9.09126061268711
539,3.05812513681752
540,-9.09126061268715
547,3.07709117067328
548,-8.82754712567342
555,2.29001088288499
556,-7.39656822168030
565,4.57399236586171
566,18.0000000000000
573,3.86092068473399
574,-11.9214171457777
581,2.99132756311082
582,-8.83234900618256
589,2.96887622199328
590,-9.09735487426824
597,2.96887622199327
598,-9.09735487426824
605,3.00476391677372
606,-8.83146171007305
613,2.18230607257988
614,-6.37053463419306
623,4.48814020000510
624,18.0000000000000
631,3.76086456555256
632,-11.9228534830329
639,3.04661078861230
640,-8.82949826971236
647,3.02420110633860
648,-9.09382075817360
655,3.02420110633859
656,-9.09382075817363
663,3.06379731603715
664,-8.82844763775573
671,1.69645949552876
672,-7.54033875656228
681,4.53864480627934
682,18.0000000000000
689,3.81838504479447
690,-11.9220550016102
2,1, 1, 1, 0,10, 0.00,60.00,Monday         
6,-7.80000000000000
837,4.44060630093804
838,4.35682065783094
839,4.40017264834137
2,1, 1, 1, 0,11, 0.00,60.00,Monday         
37,1.95934224838847
42,0.000000000000000E+000
44,7.72829219040599
49,0.000000000000000E+000
51,19.2231435924771
56,0.000000000000000E+000
119,1.95934224838847
120,0.000000000000000E+000
121,1.95934224838847
126,5.005964989776202E-002
127,0.432402288859798
128,0.517538061242440
141,6.042289228334705E-002
142,0.000000000000000E+000
143,5.005977779654808E-002
218,7.72829219040599
219,0.000000000000000E+000
220,7.72829219040599
225,0.197451773255811
226,0.166846346463456
227,0.635701880280732
240,0.231371788844866
241,0.000000000000000E+000
242,0.197452277730816
317,19.2231435924771
318,0.000000000000000E+000
319,19.2231435924771
324,0.491136165192830
325,0.300229986482890
326,0.208633848324280
339,0.576420195174660
340,0.000000000000000E+000
341,0.491137420010221
523,3.10484185739368
524,-8.94274421329286
531,3.08250066190637
532,-9.18292732693061
539,3.08250066190636
540,-9.18292732693064
547,3.10134749446110
548,-8.94287102579332
555,1.68533185833076
556,-7.72214753257833
565,4.61477149540455
566,18.0000000000000
573,3.87010096914837
574,-11.9552389923673
581,3.01169816423175
582,-8.94780239311131
589,2.98937517457735
590,-9.18914101535309
597,2.98937517457736
598,-9.18914101535309
605,3.02506600121973
606,-8.94689203163175
613,2.08293471032675
614,-6.78420284236620
623,4.52755822547608
624,18.0000000000000
631,3.76824026234463
632,-11.9566772364652
639,3.06709158022263
640,-8.94488030019270
647,3.04480798486452
648,-9.18554578070165
655,3.04480798486450
656,-9.18554578070167
663,3.08414340669148
664,-8.94380366382175
671,1.67580006883338
672,-7.73459059153947
681,4.57925716760101
682,18.0000000000000
689,3.82581539285880
690,-11.9558770409189
2,1, 1, 1, 0,11, 0.00,60.00,Monday         
6,-8.00000000000000
837,4.58636531456577
838,4.49884933227122
839,4.54267834509304
2,1, 1, 1, 0,12, 0.00,60.00,Monday         
37,4.04099365332883
42,2.75096019434235
44,15.9390120425299
49,3.16838521045595
51,39.6462646166691
56,14.7907549263320
119,4.04099365332883
120,0.000000000000000E+000
121,4.04099365332883
126,5.005971578263606E-002
127,0.432401541828930
128,0.517538742388434
141,6.100813999853082E-002
142,0.000000000000000E+000
143,5.005977779654808E-002
218,15.9390120425299
219,0.000000000000000E+000
220,15.9390120425299
225,0.197452033127489
226,0.166845249927151
227,0.635702716945360
240,0.232896331326630
241,0.000000000000000E+000
242,0.197452277730816
317,39.6462646166691
318,0.000000000000000E+000
319,39.6462646166691
324,0.491136811590566
325,0.300229065496441
326,0.208634122912993
339,0.579500269127362
340,0.000000000000000E+000
341,0.491137420010221
523,3.12957292812127
524,-8.35337352594447
531,3.10738659295232
532,-8.58808744285843
539,3.10738659295232
540,-8.58808744285846
547,3.12563371077679
548,-8.30880323083425
555,4.50292742361751
556,-6.07602711450926
565,4.65602195269253
566,18.0000000000000
573,3.88066735837546
574,-11.6809707252238
581,3.04128116950098
582,-8.35839409152550
589,3.01910256082504
590,-8.59425158723947
597,3.01910256082504
598,-8.59425158723947
605,3.05220246897633
606,-8.31279844582855
613,2.73471732109692
614,-4.47906846748060
623,4.57115636860088
624,18.0000000000000
631,3.78234216081316
632,-11.6824015050179
639,3.10237740411614
640,-8.35549958532261
647,3.08023646563829
648,-8.59069217042725
655,3.08023646563828
656,-8.59069217042728
663,3.11814525372018
664,-8.30973667946609
671,2.02307424417290
672,-6.64469464747231
681,4.62716893483373
682,18.0000000000000
689,3.84367691169083
690,-11.6816051004378
2,1, 1, 1, 0,12, 0.00,60.00,Monday         
6,-7.40000000000000
837,4.64661993814439
838,4.52956907230989
839,4.57356512541796
2,1, 1, 1, 0,13, 0.00,60.00,Monday         
37,6.00408145936434
42,9.44597335763805
44,23.6820779479089
49,13.7342874611026
51,58.9061559455574
56,33.7529625496502
119,6.00408145936434
120,0.000000000000000E+000
121,6.00408145936434
126,5.005973605861896E-002
127,0.432401311931168
128,0.517538952010213
141,6.046315267790468E-002
142,0.000000000000000E+000
143,5.005977779654808E-002
218,23.6820779479089
219,0.000000000000000E+000
220,23.6820779479089
225,0.197452113102655
226,0.166844912469553
227,0.635702974427793
240,0.231476359524304
241,0.000000000000000E+000
242,0.197452277730816
317,58.9061559455574
318,0.000000000000000E+000
319,58.9061559455574
324,0.491137010518615
325,0.300228782064079
326,0.208634207417306
339,0.576639672831699
340,0.000000000000000E+000
341,0.491137420010221
523,3.13820057264671
524,-8.23936182295016
531,3.11613477870935
532,-8.49083008045738
539,3.11613477870934
540,-8.49083008045740
547,3.13366680914536
548,-8.11776793688077
555,7.55470307319831
556,-5.18077527138939
565,4.69032864798094
566,18.0000000000000
573,3.88250639953391
574,-11.5423298852853
581,3.05173116042440
582,-8.24438172642056
589,3.02965315416615
590,-8.49702587509234
597,3.02965315416615
598,-8.49702587509234
605,3.06109175159978
606,-8.12178114752133
613,3.01934412322089
614,-3.39964409821675
623,4.60842766584255
624,18.0000000000000
631,3.78578206612138
632,-11.5437449467797